{
  "name": "Beryllium",
  "symbol": "Be",
  "atomic_number": 4,
  "atomic_mass_u": 9.0122,
  "atomic_mass_uncertainty_u": 0.0001,
  "classification": {
    "group": 2,
    "period": 2,
    "block": "s",
    "category": "alkaline earth metal",
    "series": "alkaline earth metal",
    "natural_occurrence": "primordial"
  },
  "atomic_structure": {
    "electron_configuration": "[He] 2s2",
    "electron_configuration_long": "1s2 2s2",
    "electron_shells": [
      2,
      2
    ],
    "valence_electrons": 2,
    "oxidation_states": [
      1,
      2
    ],
    "common_oxidation_states": [
      2
    ],
    "electronegativity_pauling": 1.57,
    "ionization_energies_kj_mol": [
      899.5
    ],
    "electron_affinity_kj_mol": -48.0,
    "atomic_radius_pm": 112,
    "covalent_radius_pm": 96,
    "van_der_waals_radius_pm": 153
  },
  "physical_properties": {
    "phase_at_stp": "solid",
    "melting_point_k": 1560.0,
    "boiling_point_k": 2742.0,
    "density_kg_m3": 1850.0,
    "density_liquid_kg_m3": null,
    "triple_point_k": null,
    "triple_point_kpa": null,
    "critical_point_k": null,
    "critical_point_mpa": null,
    "heat_of_fusion_kj_mol": 7.895,
    "heat_of_vaporization_kj_mol": 292.0,
    "molar_heat_capacity_j_mol_k": 16.443,
    "color": "grey-white",
    "crystal_structure": "hexagonal close-packed",
    "magnetic_ordering": "diamagnetic",
    "speed_of_sound_m_s": 13000,
    "thermal_conductivity_w_m_k": 200.0,
    "thermal_expansion_per_k": 1.13e-05,
    "mohs_hardness": 5.5,
    "bulk_modulus_gpa": 130,
    "shear_modulus_gpa": 132,
    "young_modulus_gpa": 287,
    "poisson_ratio": 0.032
  },
  "nuclear_properties": {
    "radioactive": false,
    "half_life": null,
    "decay_mode": null,
    "stable_isotopes": [
      9
    ],
    "isotopes": [
      {
        "mass_number": 9,
        "symbol": "9Be",
        "name": null,
        "neutrons": 5,
        "abundance_percent": 100.0,
        "mass_u": 9.0121822,
        "half_life": "stable",
        "decay_mode": null,
        "spin": "3/2-"
      }
    ]
  },
  "abundance": {
    "universe_percent": 1e-07,
    "solar_percent": 1e-07,
    "earth_crust_ppm": 2.8,
    "ocean_ppm": 5.6e-06,
    "human_body_percent": 4e-08
  },
  "discovery": {
    "year": 1798,
    "discoverers": [
      "Louis Nicolas Vauquelin"
    ],
    "country": "France",
    "named_by": "Martin Heinrich Klaproth",
    "name_origin": "Greek 'beryllos' (beryl)"
  },
  "applications": [
    "Aerospace alloys (beryllium-copper)",
    "X-ray windows (low absorption)",
    "Nuclear reactor neutron reflector",
    "Satellite structural components",
    "Gyroscope components",
    "Acoustic speaker cones"
  ],
  "hazards": {
    "ghs_pictograms": [
      "GHS06",
      "GHS08"
    ],
    "signal_word": "Danger",
    "nfpa_704": null,
    "hazard_statements": [],
    "autoignition_temp_k": null,
    "flash_point_k": null,
    "explosive_limits_percent": null
  },
  "reactions": []
}