{
  "name": "Carbon",
  "symbol": "C",
  "atomic_number": 6,
  "atomic_mass_u": 12.011,
  "atomic_mass_uncertainty_u": 0.002,
  "classification": {
    "group": 14,
    "period": 2,
    "block": "p",
    "category": "reactive nonmetal",
    "series": "nonmetal",
    "natural_occurrence": "primordial"
  },
  "atomic_structure": {
    "electron_configuration": "[He] 2s2 2p2",
    "electron_configuration_long": "1s2 2s2 2p2",
    "electron_shells": [
      2,
      4
    ],
    "valence_electrons": 4,
    "oxidation_states": [
      -4,
      -3,
      -2,
      -1,
      0,
      1,
      2,
      3,
      4
    ],
    "common_oxidation_states": [
      -4,
      4
    ],
    "electronegativity_pauling": 2.55,
    "ionization_energies_kj_mol": [
      1086.5
    ],
    "electron_affinity_kj_mol": 121.776,
    "atomic_radius_pm": 67,
    "covalent_radius_pm": 76,
    "van_der_waals_radius_pm": 170
  },
  "physical_properties": {
    "phase_at_stp": "solid",
    "melting_point_k": 3823.0,
    "boiling_point_k": 4098.0,
    "density_kg_m3": 2267.0,
    "density_liquid_kg_m3": null,
    "triple_point_k": null,
    "triple_point_kpa": null,
    "critical_point_k": null,
    "critical_point_mpa": null,
    "heat_of_fusion_kj_mol": 117.0,
    "heat_of_vaporization_kj_mol": 715.0,
    "molar_heat_capacity_j_mol_k": 8.517,
    "color": "black (graphite)",
    "crystal_structure": "hexagonal (graphite)",
    "magnetic_ordering": "diamagnetic",
    "speed_of_sound_m_s": 18350,
    "thermal_conductivity_w_m_k": 119.0,
    "thermal_expansion_per_k": 8e-07,
    "mohs_hardness": 0.5,
    "bulk_modulus_gpa": 33,
    "shear_modulus_gpa": null,
    "young_modulus_gpa": 33,
    "poisson_ratio": null
  },
  "nuclear_properties": {
    "radioactive": false,
    "half_life": null,
    "decay_mode": null,
    "stable_isotopes": [
      12,
      13
    ],
    "isotopes": [
      {
        "mass_number": 12,
        "symbol": "12C",
        "name": null,
        "neutrons": 6,
        "abundance_percent": 98.93,
        "mass_u": 12.0,
        "half_life": "stable",
        "decay_mode": null,
        "spin": "0+"
      },
      {
        "mass_number": 13,
        "symbol": "13C",
        "name": null,
        "neutrons": 7,
        "abundance_percent": 1.07,
        "mass_u": 13.00335484,
        "half_life": "stable",
        "decay_mode": null,
        "spin": "1/2-"
      },
      {
        "mass_number": 14,
        "symbol": "14C",
        "name": null,
        "neutrons": 8,
        "abundance_percent": null,
        "mass_u": 14.003241989,
        "half_life": "5730 y",
        "decay_mode": "beta-minus",
        "spin": "0+"
      }
    ]
  },
  "abundance": {
    "universe_percent": 0.5,
    "solar_percent": 0.5,
    "earth_crust_ppm": 200,
    "ocean_ppm": 28,
    "human_body_percent": 18.5
  },
  "discovery": {
    "year": null,
    "discoverers": [
      "Known since antiquity"
    ],
    "country": null,
    "named_by": "Antoine Lavoisier",
    "name_origin": "Latin 'carbo' (charcoal)"
  },
  "applications": [
    "Steel production (carbon steel)",
    "Activated carbon filtration",
    "Carbon fiber composites",
    "Diamond cutting and abrasives",
    "Graphite lubricants and electrodes",
    "Carbon black (tires, inks)",
    "Organic chemistry (basis of all organic compounds)",
    "Carbon dating (14C)",
    "Graphene research",
    "Carbon nanotubes"
  ],
  "hazards": {
    "ghs_pictograms": [],
    "signal_word": null,
    "nfpa_704": {
      "health": 0,
      "flammability": 0,
      "reactivity": 0,
      "special": ""
    },
    "hazard_statements": [],
    "autoignition_temp_k": null,
    "flash_point_k": null,
    "explosive_limits_percent": null
  },
  "reactions": [
    {
      "id": "C-biological-001",
      "name": "Photosynthesis (overall)",
      "equation": "6 CO2(g) + 6 H2O(l) -> C6H12O6(s) + 6 O2(g)",
      "type": "photosynthesis",
      "category": "biological",
      "delta_h_kj": 2803,
      "conditions": "chlorophyll; light energy (sunlight); thylakoid membranes",
      "description": "Converts light energy to chemical energy. Produces all atmospheric O2. Calvin cycle fixes CO2.",
      "reversible": false
    },
    {
      "id": "C-biological-003",
      "name": "Cellular respiration (overall)",
      "equation": "C6H12O6(s) + 6 O2(g) -> 6 CO2(g) + 6 H2O(l)",
      "type": "respiration",
      "category": "biological",
      "delta_h_kj": -2803,
      "conditions": "glycolysis + Krebs cycle + oxidative phosphorylation; ~30-32 ATP per glucose",
      "description": "Complete oxidation of glucose. Exact reverse of photosynthesis. Powers all aerobic life.",
      "reversible": false
    },
    {
      "id": "C-biological-004",
      "name": "Glycolysis (net reaction)",
      "equation": "C6H12O6(s) + 2 NAD+(aq) + 2 ADP(aq) + 2 Pi(aq) -> 2 CH3COCOO-(aq) + 2 NADH(aq) + 2 ATP(aq) + 2 H2O(l)",
      "type": "glycolysis",
      "category": "biological",
      "delta_h_kj": -74,
      "conditions": "cytoplasm; 10 enzyme-catalyzed steps",
      "description": "Glucose to 2 pyruvate. Net 2 ATP + 2 NADH. Universal pathway in all domains of life.",
      "reversible": false
    },
    {
      "id": "C-biological-005",
      "name": "Ethanol fermentation",
      "equation": "C6H12O6(s) -> 2 C2H5OH(l) + 2 CO2(g)",
      "type": "fermentation",
      "category": "biological",
      "delta_h_kj": -69,
      "conditions": "zymase (yeast enzymes); anaerobic conditions; Saccharomyces cerevisiae",
      "description": "Anaerobic glucose metabolism by yeast. Produces beer, wine, bread (CO2 leavening).",
      "reversible": false
    },
    {
      "id": "C-biological-006",
      "name": "Lactic acid fermentation",
      "equation": "C6H12O6(s) -> 2 CH3CH(OH)COOH(aq)",
      "type": "fermentation",
      "category": "biological",
      "delta_h_kj": -136,
      "conditions": "lactate dehydrogenase; anaerobic; muscle cells during intense exercise",
      "description": "Anaerobic pathway in muscle. Also used by Lactobacillus in yogurt/sauerkraut production.",
      "reversible": false
    },
    {
      "id": "C-biological-007",
      "name": "Krebs cycle (overall per acetyl-CoA)",
      "equation": "Acetyl-CoA + 3 NAD+ + FAD + GDP + Pi + 2 H2O -> CoA-SH + 2 CO2 + 3 NADH + FADH2 + GTP",
      "type": "oxidative cycle",
      "category": "biological",
      "delta_h_kj": null,
      "conditions": "mitochondrial matrix; 8 enzyme-catalyzed steps; regulated by [ATP]/[ADP]",
      "description": "Central metabolic hub. Oxidizes acetyl groups to CO2, generating electron carriers for ETC.",
      "reversible": false
    },
    {
      "id": "C-biological-008",
      "name": "Beta-oxidation of fatty acids (per cycle)",
      "equation": "Acyl-CoA(Cn) + FAD + NAD+ + CoA-SH + H2O -> Acyl-CoA(Cn-2) + FADH2 + NADH + Acetyl-CoA",
      "type": "oxidation",
      "category": "biological",
      "delta_h_kj": null,
      "conditions": "mitochondrial matrix; 4 enzymes per cycle; each cycle removes 2 carbons",
      "description": "Fatty acid catabolism. Each cycle yields 1 FADH2, 1 NADH, 1 acetyl-CoA (~14 ATP per cycle).",
      "reversible": false
    },
    {
      "id": "Fe-biological-001",
      "name": "Hemoglobin oxygen binding",
      "equation": "Hb(aq) + 4 O2(g) <=> Hb(O2)4(aq)",
      "type": "binding",
      "category": "biological",
      "delta_h_kj": -67,
      "conditions": "cooperative binding (sigmoidal curve); Fe2+ in heme porphyrin; P50 = 26 mmHg",
      "description": "Cooperative O2 binding to hemoglobin's four heme groups. Fe2+ does NOT oxidize to Fe3+.",
      "reversible": true
    },
    {
      "id": "Mg-biological-001",
      "name": "Chlorophyll light absorption",
      "equation": "Chl + hv -> Chl*",
      "type": "photoexcitation",
      "category": "biological",
      "delta_h_kj": null,
      "conditions": "absorbs red (680 nm) and blue (430 nm); Mg2+ coordinated by porphyrin ring",
      "description": "Chlorophyll absorbs light via Mg-porphyrin chromophore. Excited electron enters photosystem.",
      "reversible": false
    },
    {
      "id": "N-biological-002",
      "name": "Urease catalysis",
      "equation": "NH2CONH2(aq) + H2O(l) -> 2 NH3(aq) + CO2(g)",
      "type": "enzyme catalysis",
      "category": "biological",
      "delta_h_kj": -40,
      "conditions": "urease (Ni2+ active site); rate enhancement: 10^14 over uncatalyzed",
      "description": "Urease was the first enzyme crystallized (Sumner, 1926). Contains dinuclear Ni center.",
      "reversible": false
    },
    {
      "id": "P-biological-001",
      "name": "ATP hydrolysis",
      "equation": "ATP(aq) + H2O(l) -> ADP(aq) + Pi(aq) + H+(aq)",
      "type": "hydrolysis",
      "category": "biological",
      "delta_h_kj": -30.5,
      "conditions": "Mg2+ cofactor; standard biochemical conditions (pH 7, 1mM)",
      "description": "Universal energy currency of life. Drives endergonic reactions by coupling. ~100 kg ATP recycled/day in humans.",
      "reversible": false
    },
    {
      "id": "P-biological-002",
      "name": "ATP synthesis (oxidative phosphorylation)",
      "equation": "ADP(aq) + Pi(aq) + H+(aq) -> ATP(aq) + H2O(l)",
      "type": "phosphorylation",
      "category": "biological",
      "delta_h_kj": 30.5,
      "conditions": "ATP synthase (Complex V); proton motive force across inner mitochondrial membrane",
      "description": "Chemiosmotic synthesis of ATP. F1Fo-ATP synthase rotary motor. ~26-28 ATP from one glucose.",
      "reversible": false
    },
    {
      "id": "S-biological-001",
      "name": "Disulfide bond formation (protein folding)",
      "equation": "2 R-SH -> R-S-S-R + 2 H+ + 2 e-",
      "type": "oxidation",
      "category": "biological",
      "delta_h_kj": null,
      "conditions": "endoplasmic reticulum; protein disulfide isomerase (PDI)",
      "description": "Cysteine disulfide bridges stabilize protein tertiary structure. Oxidizing environment of ER.",
      "reversible": true
    },
    {
      "id": "Zn-biological-001",
      "name": "Carbonic anhydrase",
      "equation": "CO2(g) + H2O(l) <=> HCO3-(aq) + H+(aq)",
      "type": "enzyme catalysis",
      "category": "biological",
      "delta_h_kj": null,
      "conditions": "carbonic anhydrase (Zn2+ active site); kcat ~10^6 s-1; one of fastest enzymes",
      "description": "Zinc metalloenzyme. Catalyzes CO2 hydration ~10^6 times faster than uncatalyzed. Critical for CO2 transport and pH regulation.",
      "reversible": true
    },
    {
      "id": "C-environmental-001",
      "name": "Ocean acidification",
      "equation": "CO2(g) + H2O(l) <=> H2CO3(aq) <=> HCO3-(aq) + H+(aq)",
      "type": "acidification",
      "category": "environmental",
      "delta_h_kj": null,
      "conditions": "oceans absorb ~30% of anthropogenic CO2; pH dropped from 8.2 to 8.1 since pre-industrial",
      "description": "CO2 dissolution lowers ocean pH. Threatens coral reefs and shellfish (CaCO3 dissolution).",
      "reversible": true
    },
    {
      "id": "C-environmental-002",
      "name": "Methanogenesis",
      "equation": "CO2(g) + 4 H2(g) -> CH4(g) + 2 H2O(l)",
      "type": "methanogenesis",
      "category": "environmental",
      "delta_h_kj": -130.7,
      "conditions": "methanogenic archaea; strictly anaerobic; wetlands, ruminant guts, landfills",
      "description": "Archaeal methanogenesis. Major biogenic CH4 source. Contributes to greenhouse effect.",
      "reversible": false
    },
    {
      "id": "C-environmental-003",
      "name": "Methane oxidation (atmospheric sink)",
      "equation": "CH4(g) + 2 O2(g) -> CO2(g) + 2 H2O(g)",
      "type": "oxidation",
      "category": "environmental",
      "delta_h_kj": -802,
      "conditions": "hydroxyl radical (OH*) initiated; tropospheric lifetime ~12 years",
      "description": "Atmospheric methane removal by OH radical. Primary sink for CH4 greenhouse gas.",
      "reversible": false
    },
    {
      "id": "Ca-environmental-001",
      "name": "Chemical weathering of limestone",
      "equation": "CaCO3(s) + CO2(g) + H2O(l) -> Ca(HCO3)2(aq)",
      "type": "weathering",
      "category": "environmental",
      "delta_h_kj": null,
      "conditions": "rain dissolves atmospheric CO2 forming weak carbonic acid",
      "description": "Creates caves, karst topography. Major CO2 sink on geological timescale. Causes hard water.",
      "reversible": true
    },
    {
      "id": "Hg-environmental-001",
      "name": "Mercury methylation (bioaccumulation)",
      "equation": "Hg2+(aq) + CH3-(aq) -> CH3Hg+(aq)",
      "type": "methylation",
      "category": "environmental",
      "delta_h_kj": null,
      "conditions": "anaerobic sulfate-reducing bacteria; wetlands and sediments",
      "description": "Methylmercury bioaccumulates in food chains. Minamata disease. Extremely neurotoxic.",
      "reversible": false
    },
    {
      "id": "S-environmental-002",
      "name": "Sulfate reduction (deep ocean)",
      "equation": "SO4 2-(aq) + 2 CH2O(s) -> H2S(g) + 2 HCO3-(aq)",
      "type": "sulfate reduction",
      "category": "environmental",
      "delta_h_kj": null,
      "conditions": "sulfate-reducing bacteria (Desulfovibrio); anaerobic marine sediments",
      "description": "Microbial sulfate reduction. Produces H2S (rotten egg smell). Forms black FeS in sediments.",
      "reversible": false
    },
    {
      "id": "Si-environmental-001",
      "name": "Silicate weathering (CO2 sink)",
      "equation": "CaSiO3(s) + 2 CO2(g) + 3 H2O(l) -> Ca2+(aq) + 2 HCO3-(aq) + H4SiO4(aq)",
      "type": "weathering",
      "category": "environmental",
      "delta_h_kj": null,
      "conditions": "geological timescale; thermostat of Earth's climate",
      "description": "Silicate weathering is the primary geological CO2 sink. Urey reaction controls climate over millions of years.",
      "reversible": false
    },
    {
      "id": "Al-industrial-001",
      "name": "Hall-Heroult process",
      "equation": "2 Al2O3(l) + 3 C(s) -> 4 Al(l) + 3 CO2(g)",
      "type": "electrolysis",
      "category": "industrial",
      "delta_h_kj": 2170,
      "conditions": "1233 K; electrolysis in molten cryolite (Na3AlF6) bath; carbon anodes consumed",
      "description": "Primary aluminium smelting. Consumes ~15 kWh per kg Al. Dissolved in cryolite at ~960C.",
      "reversible": false
    },
    {
      "id": "C-industrial-001",
      "name": "Fischer-Tropsch synthesis (general)",
      "equation": "n CO(g) + (2n+1) H2(g) -> CnH(2n+2)(l) + n H2O(g)",
      "type": "synthesis",
      "category": "industrial",
      "delta_h_kj": -165,
      "conditions": "523 K; 25 atm; iron or cobalt",
      "description": "Converts syngas to liquid hydrocarbons. Used for gas-to-liquids (GTL) and coal-to-liquids.",
      "reversible": false
    },
    {
      "id": "C-industrial-002",
      "name": "Methanol synthesis",
      "equation": "CO(g) + 2 H2(g) <=> CH3OH(g)",
      "type": "synthesis",
      "category": "industrial",
      "delta_h_kj": -90.5,
      "conditions": "523 K; 80 atm; Cu/ZnO/Al2O3",
      "description": "Industrial methanol synthesis from syngas. ~100 million tonnes/year globally.",
      "reversible": true
    },
    {
      "id": "C-industrial-003",
      "name": "Ethylene production (steam cracking)",
      "equation": "C2H6(g) -> C2H4(g) + H2(g)",
      "type": "cracking",
      "category": "industrial",
      "delta_h_kj": 136.4,
      "conditions": "1123 K; steam cracking; residence time <1 second",
      "description": "Thermal dehydrogenation of ethane to ethylene. Largest-volume petrochemical.",
      "reversible": false
    },
    {
      "id": "C-industrial-004",
      "name": "Polyethylene polymerization",
      "equation": "n C2H4(g) -> (C2H4)n(s)",
      "type": "polymerization",
      "category": "industrial",
      "delta_h_kj": -93,
      "conditions": "Ziegler-Natta (TiCl4/AlEt3) or metallocene; various pressures by process type",
      "description": "Polymerization of ethylene to polyethylene. Most-produced plastic globally.",
      "reversible": false
    },
    {
      "id": "C-industrial-005",
      "name": "Catalytic cracking (general)",
      "equation": "C16H34(l) -> C8H18(l) + C8H16(g)",
      "type": "cracking",
      "category": "industrial",
      "delta_h_kj": null,
      "conditions": "773 K; zeolite (USY or ZSM-5); FCC unit; 2-5 second contact time",
      "description": "Fluid catalytic cracking (FCC) of heavy petroleum fractions into gasoline.",
      "reversible": false
    },
    {
      "id": "C-industrial-006",
      "name": "Methane combustion",
      "equation": "CH4(g) + 2 O2(g) -> CO2(g) + 2 H2O(g)",
      "type": "combustion",
      "category": "industrial",
      "delta_h_kj": -802.3,
      "conditions": "ignition source required",
      "description": "Natural gas combustion. Cleanest-burning fossil fuel.",
      "reversible": false
    },
    {
      "id": "Ca-industrial-001",
      "name": "Cement clinker formation (limestone calcination)",
      "equation": "CaCO3(s) -> CaO(s) + CO2(g)",
      "type": "decomposition",
      "category": "industrial",
      "delta_h_kj": 178,
      "conditions": "1173 K; rotary kiln",
      "description": "Calcination of limestone. Major source of industrial CO2 emissions.",
      "reversible": false
    },
    {
      "id": "Cl-industrial-002",
      "name": "PVC production (vinyl chloride)",
      "equation": "C2H4(g) + Cl2(g) -> C2H4Cl2(l)",
      "type": "addition",
      "category": "industrial",
      "delta_h_kj": -218,
      "conditions": "FeCl3",
      "description": "Direct chlorination of ethylene to 1,2-dichloroethane (EDC). Precursor to PVC.",
      "reversible": false
    },
    {
      "id": "Fe-industrial-001",
      "name": "Blast furnace iron smelting (overall)",
      "equation": "Fe2O3(s) + 3 CO(g) -> 2 Fe(l) + 3 CO2(g)",
      "type": "reduction",
      "category": "industrial",
      "delta_h_kj": -24.8,
      "conditions": "1773 K; blast furnace with coke as reductant",
      "description": "Primary iron ore reduction. CO generated in situ from coke + hot air.",
      "reversible": false
    },
    {
      "id": "Fe-industrial-002",
      "name": "Coke combustion in blast furnace",
      "equation": "2 C(s) + O2(g) -> 2 CO(g)",
      "type": "combustion",
      "category": "industrial",
      "delta_h_kj": -221,
      "conditions": "1773 K; blast furnace tuyere zone",
      "description": "Limited combustion of coke produces CO reductant gas in blast furnace.",
      "reversible": false
    },
    {
      "id": "Fe-industrial-003",
      "name": "Basic oxygen steelmaking",
      "equation": "2 C(s) + O2(g) -> 2 CO(g)",
      "type": "oxidation",
      "category": "industrial",
      "delta_h_kj": -221,
      "conditions": "1923 K; pure O2 blown into molten pig iron; removes excess C as CO",
      "description": "Basic oxygen furnace (BOF) converts pig iron to steel by blowing O2. ~70% of world steel.",
      "reversible": false
    },
    {
      "id": "H-industrial-002",
      "name": "Steam methane reforming",
      "equation": "CH4(g) + H2O(g) -> CO(g) + 3 H2(g)",
      "type": "reforming",
      "category": "industrial",
      "delta_h_kj": 206,
      "conditions": "1100 K; 20 atm; nickel on alumina",
      "description": "Primary industrial hydrogen production method. Produces syngas.",
      "reversible": true
    },
    {
      "id": "H-industrial-003",
      "name": "Water-gas shift reaction",
      "equation": "CO(g) + H2O(g) <=> CO2(g) + H2(g)",
      "type": "shift",
      "category": "industrial",
      "delta_h_kj": -41.2,
      "conditions": "623 K; iron oxide (HTS) or Cu-ZnO-Al2O3 (LTS)",
      "description": "Converts CO and steam to CO2 and H2. Used after steam reforming.",
      "reversible": true
    },
    {
      "id": "Li-industrial-001",
      "name": "Lithium carbonate to lithium metal",
      "equation": "Li2CO3(s) -> Li2O(s) + CO2(g)",
      "type": "decomposition",
      "category": "industrial",
      "delta_h_kj": 234,
      "conditions": "1583 K",
      "description": "Thermal decomposition of lithium carbonate. Precursor to lithium metal electrolysis.",
      "reversible": false
    },
    {
      "id": "Mn-industrial-001",
      "name": "Manganese dioxide reduction (ferromanganese)",
      "equation": "MnO2(s) + 2 C(s) -> Mn(s) + 2 CO(g)",
      "type": "reduction",
      "category": "industrial",
      "delta_h_kj": null,
      "conditions": "1573 K; electric arc furnace for ferromanganese",
      "description": "Carbothermic reduction of pyrolusite. 90% of Mn used in steel production.",
      "reversible": false
    },
    {
      "id": "N-industrial-005",
      "name": "Urea synthesis",
      "equation": "2 NH3(g) + CO2(g) <=> NH2CONH2(s) + H2O(l)",
      "type": "synthesis",
      "category": "industrial",
      "delta_h_kj": -103.5,
      "conditions": "458 K; 175 atm; two-step via ammonium carbamate",
      "description": "Bosch-Meiser process. World's most-produced chemical by mass (~180 Mt/y). Fertilizer.",
      "reversible": true
    },
    {
      "id": "Na-industrial-001",
      "name": "Solvay process (overall)",
      "equation": "2 NaCl(aq) + CaCO3(s) -> Na2CO3(s) + CaCl2(aq)",
      "type": "double displacement",
      "category": "industrial",
      "delta_h_kj": null,
      "conditions": "multi-step process using NH3 as intermediate",
      "description": "Overall Solvay process for soda ash (Na2CO3). Key step involves NaHCO3 precipitation.",
      "reversible": false
    },
    {
      "id": "Na-industrial-002",
      "name": "Solvay process (key precipitation step)",
      "equation": "NaCl(aq) + NH3(aq) + CO2(g) + H2O(l) -> NaHCO3(s) + NH4Cl(aq)",
      "type": "precipitation",
      "category": "industrial",
      "delta_h_kj": null,
      "conditions": "288 K; CO2 bubbled through ammoniacal brine",
      "description": "NaHCO3 precipitates due to low solubility. Filtered and calcined to Na2CO3.",
      "reversible": false
    },
    {
      "id": "Na-industrial-003",
      "name": "Sodium hydroxide + CO2 (caustic scrubbing)",
      "equation": "2 NaOH(aq) + CO2(g) -> Na2CO3(aq) + H2O(l)",
      "type": "absorption",
      "category": "industrial",
      "delta_h_kj": -109.4,
      "conditions": null,
      "description": "Caustic scrubbing of CO2 from flue gas or process streams.",
      "reversible": false
    },
    {
      "id": "Ni-industrial-001",
      "name": "Mond process (nickel purification)",
      "equation": "Ni(s) + 4 CO(g) <=> Ni(CO)4(g)",
      "type": "carbonyl formation",
      "category": "industrial",
      "delta_h_kj": -160,
      "conditions": "323 K; Ni(CO)4 decomposes at 230C to deposit pure Ni; extremely toxic gas",
      "description": "Mond process: volatile Ni(CO)4 formed at 50C, decomposed at 230C for 99.99% pure Ni.",
      "reversible": true
    },
    {
      "id": "P-industrial-001",
      "name": "Phosphorus production (electric arc furnace)",
      "equation": "2 Ca3(PO4)2(s) + 6 SiO2(s) + 10 C(s) -> P4(g) + 6 CaSiO3(l) + 10 CO(g)",
      "type": "reduction",
      "category": "industrial",
      "delta_h_kj": null,
      "conditions": "1773 K; electric arc furnace; P4 vapor condensed under water",
      "description": "White phosphorus production from phosphate rock via electric arc furnace.",
      "reversible": false
    },
    {
      "id": "Si-industrial-001",
      "name": "Soda-lime glass production",
      "equation": "Na2CO3(s) + SiO2(s) -> Na2SiO3(l) + CO2(g)",
      "type": "fusion",
      "category": "industrial",
      "delta_h_kj": null,
      "conditions": "1773 K; glass furnace",
      "description": "Sodium carbonate lowers melting point of silica in glass manufacture.",
      "reversible": false
    },
    {
      "id": "Si-industrial-002",
      "name": "Silicon production (carbothermic reduction)",
      "equation": "SiO2(s) + 2 C(s) -> Si(l) + 2 CO(g)",
      "type": "reduction",
      "category": "industrial",
      "delta_h_kj": 689,
      "conditions": "2173 K; electric arc furnace",
      "description": "Metallurgical-grade silicon production. Purified further for semiconductor use.",
      "reversible": false
    },
    {
      "id": "Sn-industrial-001",
      "name": "Tin smelting",
      "equation": "SnO2(s) + 2 C(s) -> Sn(l) + 2 CO(g)",
      "type": "reduction",
      "category": "industrial",
      "delta_h_kj": null,
      "conditions": "1473 K; reverberatory furnace; one of the oldest smelting processes",
      "description": "Carbothermic reduction of cassiterite. Bronze Age technology. Tin used in solder and tinplate.",
      "reversible": false
    },
    {
      "id": "Ti-industrial-001",
      "name": "Kroll process step 1 (chlorination)",
      "equation": "TiO2(s) + 2 Cl2(g) + 2 C(s) -> TiCl4(l) + 2 CO(g)",
      "type": "chlorination",
      "category": "industrial",
      "delta_h_kj": -258,
      "conditions": "1173 K",
      "description": "Rutile ore converted to titanium tetrachloride. First step of Kroll process.",
      "reversible": false
    },
    {
      "id": "Zn-industrial-002",
      "name": "Zinc smelting (carbothermic reduction)",
      "equation": "ZnO(s) + C(s) -> Zn(g) + CO(g)",
      "type": "reduction",
      "category": "industrial",
      "delta_h_kj": 237,
      "conditions": "1373 K; Imperial Smelting Process or retort",
      "description": "Carbothermic reduction of ZnO. Zinc vapor condensed and collected.",
      "reversible": false
    },
    {
      "id": "Br-laboratory-001",
      "name": "Bromine water test for unsaturation",
      "equation": "C2H4(g) + Br2(aq) -> C2H4Br2(l)",
      "type": "addition",
      "category": "laboratory",
      "delta_h_kj": null,
      "conditions": null,
      "description": "Decolorization of bromine water indicates C=C double bond. Classic qualitative test.",
      "reversible": false
    },
    {
      "id": "C-laboratory-001",
      "name": "CO2 generation (marble + HCl)",
      "equation": "CaCO3(s) + 2 HCl(aq) -> CaCl2(aq) + H2O(l) + CO2(g)",
      "type": "acid-carbonate",
      "category": "laboratory",
      "delta_h_kj": -16,
      "conditions": null,
      "description": "Reaction of marble chips (CaCO3) with hydrochloric acid. Common CO2 source in lab.",
      "reversible": false
    },
    {
      "id": "C-laboratory-002",
      "name": "Fischer esterification",
      "equation": "CH3COOH(l) + C2H5OH(l) <=> CH3COOC2H5(l) + H2O(l)",
      "type": "esterification",
      "category": "laboratory",
      "delta_h_kj": null,
      "conditions": "concentrated H2SO4; reflux; equilibrium reaction",
      "description": "Acid-catalyzed esterification. Ethyl acetate has fruity smell. Common teaching reaction.",
      "reversible": true
    },
    {
      "id": "C-laboratory-003",
      "name": "Saponification (ester hydrolysis)",
      "equation": "CH3COOC2H5(l) + NaOH(aq) -> CH3COONa(aq) + C2H5OH(aq)",
      "type": "hydrolysis",
      "category": "laboratory",
      "delta_h_kj": null,
      "conditions": "heating; irreversible (OH- drives to completion)",
      "description": "Base hydrolysis of an ester. Called saponification when applied to fats (soap making).",
      "reversible": false
    },
    {
      "id": "C-laboratory-004",
      "name": "Grignard reaction (general)",
      "equation": "RMgBr(ether) + R'CHO(l) -> R'CH(OH)R(aq)",
      "type": "addition",
      "category": "laboratory",
      "delta_h_kj": null,
      "conditions": "anhydrous diethyl ether; strictly dry glassware; N2 atmosphere",
      "description": "Grignard reagent adds to carbonyl. Produces secondary alcohol from aldehyde. Nobel Prize 1912.",
      "reversible": false
    },
    {
      "id": "C-laboratory-005",
      "name": "Aldol condensation",
      "equation": "2 CH3CHO(l) -> CH3CH(OH)CH2CHO(l)",
      "type": "condensation",
      "category": "laboratory",
      "delta_h_kj": null,
      "conditions": "NaOH (dilute); low temperature favors aldol; heat gives crotonaldehyde",
      "description": "Aldol addition forms beta-hydroxy aldehyde. Cornerstone of organic synthesis.",
      "reversible": true
    },
    {
      "id": "C-laboratory-006",
      "name": "Cannizzaro reaction (benzaldehyde)",
      "equation": "2 C6H5CHO(l) + NaOH(aq) -> C6H5COONa(aq) + C6H5CH2OH(l)",
      "type": "disproportionation",
      "category": "laboratory",
      "delta_h_kj": null,
      "conditions": "concentrated NaOH; aldehydes without alpha-H",
      "description": "Non-enolizable aldehyde disproportionation to acid + alcohol. Named for Stanislao Cannizzaro.",
      "reversible": false
    },
    {
      "id": "C-laboratory-007",
      "name": "Tollens' test (silver mirror)",
      "equation": "RCHO(aq) + 2 [Ag(NH3)2]+(aq) + 2 OH-(aq) -> RCOO-(aq) + 2 Ag(s) + 4 NH3(aq) + H2O(l)",
      "type": "oxidation",
      "category": "laboratory",
      "delta_h_kj": null,
      "conditions": "warm gently; silver deposits as mirror on clean glass",
      "description": "Silver mirror test distinguishes aldehydes from ketones. Ag+ reduced to metallic silver.",
      "reversible": false
    },
    {
      "id": "C-laboratory-008",
      "name": "Fehling's test (reducing sugars)",
      "equation": "RCHO(aq) + 2 Cu2+(aq) + 5 OH-(aq) -> RCOO-(aq) + Cu2O(s) + 3 H2O(l)",
      "type": "oxidation",
      "category": "laboratory",
      "delta_h_kj": null,
      "conditions": "heat to boiling; blue Cu2+ to brick-red Cu2O precipitate",
      "description": "Brick-red Cu2O precipitate indicates reducing sugar or aldehyde. Blue to red color change.",
      "reversible": false
    },
    {
      "id": "Ca-laboratory-001",
      "name": "Calcium carbonate precipitation",
      "equation": "CaCl2(aq) + Na2CO3(aq) -> CaCO3(s) + 2 NaCl(aq)",
      "type": "precipitation",
      "category": "laboratory",
      "delta_h_kj": null,
      "conditions": null,
      "description": "White precipitate of calcium carbonate. Dissolves in dilute acid with effervescence.",
      "reversible": false
    },
    {
      "id": "Fe-laboratory-001",
      "name": "Iron(III) thiocyanate test",
      "equation": "Fe3+(aq) + 3 SCN-(aq) -> Fe(SCN)3(aq)",
      "type": "complexation",
      "category": "laboratory",
      "delta_h_kj": null,
      "conditions": null,
      "description": "Blood-red color confirms Fe3+ ions. Very sensitive test. Used in equilibrium demonstrations.",
      "reversible": false
    },
    {
      "id": "Fe-laboratory-002",
      "name": "Prussian blue formation",
      "equation": "4 Fe3+(aq) + 3 [Fe(CN)6]4-(aq) -> Fe4[Fe(CN)6]3(s)",
      "type": "precipitation",
      "category": "laboratory",
      "delta_h_kj": null,
      "conditions": null,
      "description": "Prussian blue: intense blue pigment. Historic iron detection test. Also used in art.",
      "reversible": false
    },
    {
      "id": "H-laboratory-003",
      "name": "Acetic acid + NaOH (weak acid titration)",
      "equation": "CH3COOH(aq) + NaOH(aq) -> CH3COONa(aq) + H2O(l)",
      "type": "neutralization",
      "category": "laboratory",
      "delta_h_kj": -55.8,
      "conditions": "phenolphthalein indicator; endpoint pH ~8.7",
      "description": "Weak acid-strong base titration. Equivalence point is basic due to conjugate base hydrolysis.",
      "reversible": false
    },
    {
      "id": "C-notable-002",
      "name": "Barking dog reaction",
      "equation": "2 CS2(l) + 6 N2O(g) -> 2 CO2(g) + 6 N2(g) + 4 SO2(g)",
      "type": "combustion",
      "category": "notable",
      "delta_h_kj": null,
      "conditions": "ignite CS2/N2O mixture in long tube; blue flame + barking sound",
      "description": "CS2 vapor and N2O combust with distinctive barking sound and blue flash. Popular demonstration.",
      "reversible": false
    },
    {
      "id": "Mg-notable-002",
      "name": "Magnesium in dry ice",
      "equation": "2 Mg(s) + CO2(g) -> 2 MgO(s) + C(s)",
      "type": "combustion",
      "category": "notable",
      "delta_h_kj": null,
      "conditions": "Mg ribbon burns inside CO2; demonstrates that CO2 fire extinguisher fails for Mg fires",
      "description": "Magnesium burns in CO2, reducing it to carbon. Demonstrates that CO2 extinguishers are useless for metal fires.",
      "reversible": false
    },
    {
      "id": "Mn-notable-001",
      "name": "Briggs-Rauscher oscillating reaction",
      "equation": "IO3-(aq) + 2 H2O2(aq) + CH2(COOH)2(aq) + H+(aq) -> ICH(COOH)2(aq) + 2 O2(g) + 3 H2O(l)",
      "type": "oscillating",
      "category": "notable",
      "delta_h_kj": null,
      "conditions": "MnSO4; oscillates amber -> blue -> colorless for ~10 cycles",
      "description": "Chemical oscillator. Color cycles amber -> blue -> colorless repeatedly. Non-equilibrium thermodynamics.",
      "reversible": false
    }
  ]
}
