{
  "name": "Fluorine",
  "symbol": "F",
  "atomic_number": 9,
  "atomic_mass_u": 18.998,
  "atomic_mass_uncertainty_u": 0.001,
  "classification": {
    "group": 17,
    "period": 2,
    "block": "p",
    "category": "reactive nonmetal",
    "series": "halogen",
    "natural_occurrence": "primordial"
  },
  "atomic_structure": {
    "electron_configuration": "[He] 2s2 2p5",
    "electron_configuration_long": "1s2 2s2 2p5",
    "electron_shells": [
      2,
      7
    ],
    "valence_electrons": 7,
    "oxidation_states": [
      -1
    ],
    "common_oxidation_states": [
      -1
    ],
    "electronegativity_pauling": 3.98,
    "ionization_energies_kj_mol": [
      1681.0
    ],
    "electron_affinity_kj_mol": 328.165,
    "atomic_radius_pm": 42,
    "covalent_radius_pm": 57,
    "van_der_waals_radius_pm": 147
  },
  "physical_properties": {
    "phase_at_stp": "gas",
    "melting_point_k": 53.48,
    "boiling_point_k": 85.03,
    "density_kg_m3": 1.696,
    "density_liquid_kg_m3": 1505.0,
    "triple_point_k": null,
    "triple_point_kpa": null,
    "critical_point_k": 144.41,
    "critical_point_mpa": 5.172,
    "heat_of_fusion_kj_mol": 0.51,
    "heat_of_vaporization_kj_mol": 6.62,
    "molar_heat_capacity_j_mol_k": 31.304,
    "color": "pale yellow",
    "crystal_structure": "cubic",
    "magnetic_ordering": "diamagnetic",
    "speed_of_sound_m_s": null,
    "thermal_conductivity_w_m_k": 0.0277,
    "thermal_expansion_per_k": null,
    "mohs_hardness": null,
    "bulk_modulus_gpa": null,
    "shear_modulus_gpa": null,
    "young_modulus_gpa": null,
    "poisson_ratio": null
  },
  "nuclear_properties": {
    "radioactive": false,
    "half_life": null,
    "decay_mode": null,
    "stable_isotopes": [
      19
    ],
    "isotopes": [
      {
        "mass_number": 19,
        "symbol": "19F",
        "name": null,
        "neutrons": 10,
        "abundance_percent": 100.0,
        "mass_u": 18.9984032,
        "half_life": "stable",
        "decay_mode": null,
        "spin": "1/2+"
      }
    ]
  },
  "abundance": {
    "universe_percent": 4e-05,
    "solar_percent": 4e-05,
    "earth_crust_ppm": 585,
    "ocean_ppm": 1.3,
    "human_body_percent": 0.0037
  },
  "discovery": {
    "year": 1886,
    "discoverers": [
      "Henri Moissan"
    ],
    "country": "France",
    "named_by": "Andre-Marie Ampere",
    "name_origin": "Latin 'fluere' (to flow)"
  },
  "applications": [
    "Fluoride toothpaste (dental health)",
    "Teflon (PTFE) production",
    "Uranium enrichment (UF6)",
    "Refrigerants (HFCs)",
    "Semiconductor etching",
    "Optical fiber production"
  ],
  "hazards": {
    "ghs_pictograms": [
      "GHS04",
      "GHS06"
    ],
    "signal_word": "Danger",
    "nfpa_704": {
      "health": 4,
      "flammability": 0,
      "reactivity": 0,
      "special": ""
    },
    "hazard_statements": [],
    "autoignition_temp_k": null,
    "flash_point_k": null,
    "explosive_limits_percent": null
  },
  "reactions": [
    {
      "id": "F-notable-001",
      "name": "Fluorine + water",
      "equation": "2 F2(g) + 2 H2O(l) -> 4 HF(aq) + O2(g)",
      "type": "oxidation",
      "category": "notable",
      "delta_h_kj": -758,
      "conditions": "fluorine oxidizes water (unique among halogens); extremely dangerous",
      "description": "Fluorine is the only element that oxidizes water at room temperature. Most reactive element.",
      "reversible": false
    },
    {
      "id": "Xe-notable-001",
      "name": "Xenon hexafluoroplatinate (first noble gas compound)",
      "equation": "Xe(g) + PtF6(g) -> [XePtF6](s)",
      "type": "synthesis",
      "category": "notable",
      "delta_h_kj": null,
      "conditions": "Neil Bartlett, 1962; orange-yellow solid",
      "description": "First noble gas compound. Neil Bartlett (1962) shattered the 'noble gases are inert' dogma.",
      "reversible": false
    },
    {
      "id": "Xe-notable-002",
      "name": "Xenon difluoride synthesis",
      "equation": "Xe(g) + F2(g) -> XeF2(s)",
      "type": "synthesis",
      "category": "notable",
      "delta_h_kj": -108,
      "conditions": "UV irradiation or high pressure; colorless crystals; used in semiconductor etching",
      "description": "Simplest noble gas compound made synthetically. Linear molecule. Used in semiconductor fabrication.",
      "reversible": false
    }
  ]
}
