{
  "name": "Neon",
  "symbol": "Ne",
  "atomic_number": 10,
  "atomic_mass_u": 20.18,
  "atomic_mass_uncertainty_u": 0.006,
  "classification": {
    "group": 18,
    "period": 2,
    "block": "p",
    "category": "noble gas",
    "series": "noble gas",
    "natural_occurrence": "primordial"
  },
  "atomic_structure": {
    "electron_configuration": "[He] 2s2 2p6",
    "electron_configuration_long": "1s2 2s2 2p6",
    "electron_shells": [
      2,
      8
    ],
    "valence_electrons": 8,
    "oxidation_states": [
      0
    ],
    "common_oxidation_states": [
      0
    ],
    "electronegativity_pauling": null,
    "ionization_energies_kj_mol": [
      2080.7
    ],
    "electron_affinity_kj_mol": -116.0,
    "atomic_radius_pm": 38,
    "covalent_radius_pm": 58,
    "van_der_waals_radius_pm": 154
  },
  "physical_properties": {
    "phase_at_stp": "gas",
    "melting_point_k": 24.56,
    "boiling_point_k": 27.104,
    "density_kg_m3": 0.9002,
    "density_liquid_kg_m3": 1207.0,
    "triple_point_k": 24.556,
    "triple_point_kpa": 43.37,
    "critical_point_k": 44.4918,
    "critical_point_mpa": 2.7686,
    "heat_of_fusion_kj_mol": 0.335,
    "heat_of_vaporization_kj_mol": 1.71,
    "molar_heat_capacity_j_mol_k": 20.786,
    "color": "colorless",
    "crystal_structure": "face-centered cubic",
    "magnetic_ordering": "diamagnetic",
    "speed_of_sound_m_s": null,
    "thermal_conductivity_w_m_k": 0.0491,
    "thermal_expansion_per_k": null,
    "mohs_hardness": null,
    "bulk_modulus_gpa": null,
    "shear_modulus_gpa": null,
    "young_modulus_gpa": null,
    "poisson_ratio": null
  },
  "nuclear_properties": {
    "radioactive": false,
    "half_life": null,
    "decay_mode": null,
    "stable_isotopes": [
      20,
      21,
      22
    ],
    "isotopes": [
      {
        "mass_number": 20,
        "symbol": "20Ne",
        "name": null,
        "neutrons": 10,
        "abundance_percent": 90.48,
        "mass_u": 19.9924402,
        "half_life": "stable",
        "decay_mode": null,
        "spin": "0+"
      },
      {
        "mass_number": 21,
        "symbol": "21Ne",
        "name": null,
        "neutrons": 11,
        "abundance_percent": 0.27,
        "mass_u": 20.9938853,
        "half_life": "stable",
        "decay_mode": null,
        "spin": "3/2+"
      },
      {
        "mass_number": 22,
        "symbol": "22Ne",
        "name": null,
        "neutrons": 12,
        "abundance_percent": 9.25,
        "mass_u": 21.9913851,
        "half_life": "stable",
        "decay_mode": null,
        "spin": "0+"
      }
    ]
  },
  "abundance": {
    "universe_percent": 0.13,
    "solar_percent": 0.13,
    "earth_crust_ppm": 0.005,
    "ocean_ppm": 0.00012,
    "human_body_percent": null
  },
  "discovery": {
    "year": 1898,
    "discoverers": [
      "William Ramsay",
      "Morris Travers"
    ],
    "country": "England",
    "named_by": "William Ramsay",
    "name_origin": "Greek 'neos' (new)"
  },
  "applications": [
    "Neon signs and lighting",
    "Helium-neon lasers",
    "High-voltage indicators",
    "Television tubes (historical)",
    "Cryogenic refrigerant"
  ],
  "hazards": {
    "ghs_pictograms": [
      "GHS04"
    ],
    "signal_word": "Warning",
    "nfpa_704": null,
    "hazard_statements": [],
    "autoignition_temp_k": null,
    "flash_point_k": null,
    "explosive_limits_percent": null
  },
  "reactions": []
}