{
  "name": "Sodium",
  "symbol": "Na",
  "atomic_number": 11,
  "atomic_mass_u": 22.99,
  "atomic_mass_uncertainty_u": 0.001,
  "classification": {
    "group": 1,
    "period": 3,
    "block": "s",
    "category": "alkali metal",
    "series": "alkali metal",
    "natural_occurrence": "primordial"
  },
  "atomic_structure": {
    "electron_configuration": "[Ne] 3s1",
    "electron_configuration_long": "1s2 2s2 2p6 3s1",
    "electron_shells": [
      2,
      8,
      1
    ],
    "valence_electrons": 1,
    "oxidation_states": [
      -1,
      1
    ],
    "common_oxidation_states": [
      1
    ],
    "electronegativity_pauling": 0.93,
    "ionization_energies_kj_mol": [
      495.8
    ],
    "electron_affinity_kj_mol": 52.867,
    "atomic_radius_pm": 190,
    "covalent_radius_pm": 166,
    "van_der_waals_radius_pm": 227
  },
  "physical_properties": {
    "phase_at_stp": "solid",
    "melting_point_k": 370.94,
    "boiling_point_k": 1156.0,
    "density_kg_m3": 971.0,
    "density_liquid_kg_m3": 927.0,
    "triple_point_k": null,
    "triple_point_kpa": null,
    "critical_point_k": null,
    "critical_point_mpa": null,
    "heat_of_fusion_kj_mol": 2.6,
    "heat_of_vaporization_kj_mol": 97.42,
    "molar_heat_capacity_j_mol_k": 28.23,
    "color": "silvery-white",
    "crystal_structure": "body-centered cubic",
    "magnetic_ordering": "paramagnetic",
    "speed_of_sound_m_s": 3200,
    "thermal_conductivity_w_m_k": 142.0,
    "thermal_expansion_per_k": 7.1e-05,
    "mohs_hardness": 0.5,
    "bulk_modulus_gpa": 6.3,
    "shear_modulus_gpa": null,
    "young_modulus_gpa": null,
    "poisson_ratio": null
  },
  "nuclear_properties": {
    "radioactive": false,
    "half_life": null,
    "decay_mode": null,
    "stable_isotopes": [
      23
    ],
    "isotopes": [
      {
        "mass_number": 23,
        "symbol": "23Na",
        "name": null,
        "neutrons": 12,
        "abundance_percent": 100.0,
        "mass_u": 22.9897693,
        "half_life": "stable",
        "decay_mode": null,
        "spin": "3/2+"
      }
    ]
  },
  "abundance": {
    "universe_percent": 0.002,
    "solar_percent": 0.002,
    "earth_crust_ppm": 23600,
    "ocean_ppm": 10800,
    "human_body_percent": 0.15
  },
  "discovery": {
    "year": 1807,
    "discoverers": [
      "Humphry Davy"
    ],
    "country": "England",
    "named_by": "Humphry Davy",
    "name_origin": "English 'soda' + Latin 'natrium'"
  },
  "applications": [
    "Table salt (NaCl)",
    "Baking soda (NaHCO3)",
    "Caustic soda (NaOH) production",
    "Sodium-vapor street lamps",
    "Nuclear reactor coolant (liquid Na)",
    "De-icing roads",
    "Glass production (Na2CO3)",
    "Water softening"
  ],
  "hazards": {
    "ghs_pictograms": [
      "GHS02",
      "GHS05"
    ],
    "signal_word": "Danger",
    "nfpa_704": {
      "health": 3,
      "flammability": 2,
      "reactivity": 2,
      "special": "W"
    },
    "hazard_statements": [],
    "autoignition_temp_k": 388,
    "flash_point_k": null,
    "explosive_limits_percent": null
  },
  "reactions": [
    {
      "id": "Al-industrial-002",
      "name": "Bayer process (alumina extraction)",
      "equation": "Al2O3 * 3H2O(s) + 2 NaOH(aq) -> 2 NaAlO2(aq) + 4 H2O(l)",
      "type": "dissolution",
      "category": "industrial",
      "delta_h_kj": null,
      "conditions": "523 K; 30 atm; digestion of bauxite in hot caustic soda",
      "description": "Bayer process extracts alumina from bauxite ore. Precursor to Hall-Heroult.",
      "reversible": false
    },
    {
      "id": "Cl-industrial-001",
      "name": "Chloralkali electrolysis",
      "equation": "2 NaCl(aq) + 2 H2O(l) -> Cl2(g) + 2 NaOH(aq) + H2(g)",
      "type": "electrolysis",
      "category": "industrial",
      "delta_h_kj": 422,
      "conditions": "membrane cell electrolysis at ~3.5 V",
      "description": "Produces chlorine, sodium hydroxide, and hydrogen simultaneously.",
      "reversible": false
    },
    {
      "id": "Na-industrial-001",
      "name": "Solvay process (overall)",
      "equation": "2 NaCl(aq) + CaCO3(s) -> Na2CO3(s) + CaCl2(aq)",
      "type": "double displacement",
      "category": "industrial",
      "delta_h_kj": null,
      "conditions": "multi-step process using NH3 as intermediate",
      "description": "Overall Solvay process for soda ash (Na2CO3). Key step involves NaHCO3 precipitation.",
      "reversible": false
    },
    {
      "id": "Na-industrial-002",
      "name": "Solvay process (key precipitation step)",
      "equation": "NaCl(aq) + NH3(aq) + CO2(g) + H2O(l) -> NaHCO3(s) + NH4Cl(aq)",
      "type": "precipitation",
      "category": "industrial",
      "delta_h_kj": null,
      "conditions": "288 K; CO2 bubbled through ammoniacal brine",
      "description": "NaHCO3 precipitates due to low solubility. Filtered and calcined to Na2CO3.",
      "reversible": false
    },
    {
      "id": "Na-industrial-003",
      "name": "Sodium hydroxide + CO2 (caustic scrubbing)",
      "equation": "2 NaOH(aq) + CO2(g) -> Na2CO3(aq) + H2O(l)",
      "type": "absorption",
      "category": "industrial",
      "delta_h_kj": -109.4,
      "conditions": null,
      "description": "Caustic scrubbing of CO2 from flue gas or process streams.",
      "reversible": false
    },
    {
      "id": "Si-industrial-001",
      "name": "Soda-lime glass production",
      "equation": "Na2CO3(s) + SiO2(s) -> Na2SiO3(l) + CO2(g)",
      "type": "fusion",
      "category": "industrial",
      "delta_h_kj": null,
      "conditions": "1773 K; glass furnace",
      "description": "Sodium carbonate lowers melting point of silica in glass manufacture.",
      "reversible": false
    },
    {
      "id": "Ag-laboratory-001",
      "name": "Silver chloride precipitation",
      "equation": "AgNO3(aq) + NaCl(aq) -> AgCl(s) + NaNO3(aq)",
      "type": "precipitation",
      "category": "laboratory",
      "delta_h_kj": -65.5,
      "conditions": null,
      "description": "Classic precipitation. White curdy precipitate. Ksp = 1.77e-10. Used in chloride analysis.",
      "reversible": false
    },
    {
      "id": "Ba-laboratory-001",
      "name": "Barium sulfate precipitation (sulfate test)",
      "equation": "BaCl2(aq) + Na2SO4(aq) -> BaSO4(s) + 2 NaCl(aq)",
      "type": "precipitation",
      "category": "laboratory",
      "delta_h_kj": null,
      "conditions": "add BaCl2 in dilute HCl to acidified sample",
      "description": "Confirmatory test for sulfate ions. White precipitate insoluble in dilute HCl. Ksp = 1.1e-10.",
      "reversible": false
    },
    {
      "id": "C-laboratory-003",
      "name": "Saponification (ester hydrolysis)",
      "equation": "CH3COOC2H5(l) + NaOH(aq) -> CH3COONa(aq) + C2H5OH(aq)",
      "type": "hydrolysis",
      "category": "laboratory",
      "delta_h_kj": null,
      "conditions": "heating; irreversible (OH- drives to completion)",
      "description": "Base hydrolysis of an ester. Called saponification when applied to fats (soap making).",
      "reversible": false
    },
    {
      "id": "C-laboratory-006",
      "name": "Cannizzaro reaction (benzaldehyde)",
      "equation": "2 C6H5CHO(l) + NaOH(aq) -> C6H5COONa(aq) + C6H5CH2OH(l)",
      "type": "disproportionation",
      "category": "laboratory",
      "delta_h_kj": null,
      "conditions": "concentrated NaOH; aldehydes without alpha-H",
      "description": "Non-enolizable aldehyde disproportionation to acid + alcohol. Named for Stanislao Cannizzaro.",
      "reversible": false
    },
    {
      "id": "Ca-laboratory-001",
      "name": "Calcium carbonate precipitation",
      "equation": "CaCl2(aq) + Na2CO3(aq) -> CaCO3(s) + 2 NaCl(aq)",
      "type": "precipitation",
      "category": "laboratory",
      "delta_h_kj": null,
      "conditions": null,
      "description": "White precipitate of calcium carbonate. Dissolves in dilute acid with effervescence.",
      "reversible": false
    },
    {
      "id": "H-laboratory-001",
      "name": "Strong acid-base neutralization (HCl + NaOH)",
      "equation": "HCl(aq) + NaOH(aq) -> NaCl(aq) + H2O(l)",
      "type": "neutralization",
      "category": "laboratory",
      "delta_h_kj": -57.1,
      "conditions": null,
      "description": "Fundamental acid-base neutralization. Enthalpy is -57.1 kJ/mol for all strong acid-strong base pairs.",
      "reversible": false
    },
    {
      "id": "H-laboratory-002",
      "name": "Sulfuric acid + sodium hydroxide",
      "equation": "H2SO4(aq) + 2 NaOH(aq) -> Na2SO4(aq) + 2 H2O(l)",
      "type": "neutralization",
      "category": "laboratory",
      "delta_h_kj": -114.2,
      "conditions": null,
      "description": "Diprotic acid neutralization. Two moles of NaOH required per mole of H2SO4.",
      "reversible": false
    },
    {
      "id": "H-laboratory-003",
      "name": "Acetic acid + NaOH (weak acid titration)",
      "equation": "CH3COOH(aq) + NaOH(aq) -> CH3COONa(aq) + H2O(l)",
      "type": "neutralization",
      "category": "laboratory",
      "delta_h_kj": -55.8,
      "conditions": "phenolphthalein indicator; endpoint pH ~8.7",
      "description": "Weak acid-strong base titration. Equivalence point is basic due to conjugate base hydrolysis.",
      "reversible": false
    },
    {
      "id": "I-laboratory-001",
      "name": "Iodometric titration (thiosulfate)",
      "equation": "I2(aq) + 2 Na2S2O3(aq) -> 2 NaI(aq) + Na2S4O6(aq)",
      "type": "redox titration",
      "category": "laboratory",
      "delta_h_kj": null,
      "conditions": "starch indicator turns blue-black with I2",
      "description": "Iodometric back-titration. Starch indicator; blue to colorless at endpoint.",
      "reversible": false
    },
    {
      "id": "N-laboratory-001",
      "name": "Ammonia from ammonium salt + base",
      "equation": "NH4Cl(s) + NaOH(s) -> NaCl(s) + H2O(l) + NH3(g)",
      "type": "base displacement",
      "category": "laboratory",
      "delta_h_kj": null,
      "conditions": "gentle heating",
      "description": "Lab preparation of ammonia. Detected by moist red litmus turning blue.",
      "reversible": false
    },
    {
      "id": "Na-laboratory-001",
      "name": "Flame test (sodium)",
      "equation": "Na(s) -> Na*(g) -> Na(g) + hv (589 nm)",
      "type": "emission",
      "category": "laboratory",
      "delta_h_kj": null,
      "conditions": "nichrome wire dipped in conc. HCl then sample; Bunsen burner",
      "description": "Intense persistent yellow flame. Sodium D-line at 589 nm. Masks other flame colors.",
      "reversible": false
    },
    {
      "id": "S-laboratory-001",
      "name": "Sulfur dioxide generation",
      "equation": "Na2SO3(s) + H2SO4(aq) -> Na2SO4(aq) + H2O(l) + SO2(g)",
      "type": "acid-salt",
      "category": "laboratory",
      "delta_h_kj": null,
      "conditions": "fume hood required; SO2 is toxic",
      "description": "Lab preparation of SO2 from sulfite salt and acid. Bleaches damp litmus.",
      "reversible": false
    },
    {
      "id": "Na-notable-001",
      "name": "Sodium in water",
      "equation": "2 Na(s) + 2 H2O(l) -> 2 NaOH(aq) + H2(g)",
      "type": "single displacement",
      "category": "notable",
      "delta_h_kj": -368,
      "conditions": "violent; Na melts and skates on water surface; H2 may ignite with yellow flame",
      "description": "Alkali metal reacts violently with water. Na melts into a ball, dashes across surface. H2 may ignite.",
      "reversible": false
    }
  ]
}
