{
  "name": "Phosphorus",
  "symbol": "P",
  "atomic_number": 15,
  "atomic_mass_u": 30.974,
  "atomic_mass_uncertainty_u": 0.001,
  "classification": {
    "group": 15,
    "period": 3,
    "block": "p",
    "category": "reactive nonmetal",
    "series": "nonmetal",
    "natural_occurrence": "primordial"
  },
  "atomic_structure": {
    "electron_configuration": "[Ne] 3s2 3p3",
    "electron_configuration_long": "1s2 2s2 2p6 3s2 3p3",
    "electron_shells": [
      2,
      8,
      5
    ],
    "valence_electrons": 5,
    "oxidation_states": [
      -3,
      -2,
      -1,
      1,
      2,
      3,
      4,
      5
    ],
    "common_oxidation_states": [
      -3,
      3,
      5
    ],
    "electronegativity_pauling": 2.19,
    "ionization_energies_kj_mol": [
      1011.8
    ],
    "electron_affinity_kj_mol": 72.037,
    "atomic_radius_pm": 98,
    "covalent_radius_pm": 107,
    "van_der_waals_radius_pm": 180
  },
  "physical_properties": {
    "phase_at_stp": "solid",
    "melting_point_k": 317.3,
    "boiling_point_k": 553.7,
    "density_kg_m3": 1823.0,
    "density_liquid_kg_m3": null,
    "triple_point_k": null,
    "triple_point_kpa": null,
    "critical_point_k": null,
    "critical_point_mpa": null,
    "heat_of_fusion_kj_mol": 0.66,
    "heat_of_vaporization_kj_mol": 51.9,
    "molar_heat_capacity_j_mol_k": 23.824,
    "color": "colorless (white P), red, black",
    "crystal_structure": "orthorhombic",
    "magnetic_ordering": "diamagnetic",
    "speed_of_sound_m_s": null,
    "thermal_conductivity_w_m_k": 0.236,
    "thermal_expansion_per_k": null,
    "mohs_hardness": null,
    "bulk_modulus_gpa": null,
    "shear_modulus_gpa": null,
    "young_modulus_gpa": null,
    "poisson_ratio": null
  },
  "nuclear_properties": {
    "radioactive": false,
    "half_life": null,
    "decay_mode": null,
    "stable_isotopes": [
      31
    ],
    "isotopes": [
      {
        "mass_number": 31,
        "symbol": "31P",
        "name": null,
        "neutrons": 16,
        "abundance_percent": 100.0,
        "mass_u": 30.973762,
        "half_life": "stable",
        "decay_mode": null,
        "spin": "1/2+"
      }
    ]
  },
  "abundance": {
    "universe_percent": 0.0007,
    "solar_percent": 0.0007,
    "earth_crust_ppm": 1050,
    "ocean_ppm": 0.06,
    "human_body_percent": 1.0
  },
  "discovery": {
    "year": 1669,
    "discoverers": [
      "Hennig Brand"
    ],
    "country": "Germany",
    "named_by": null,
    "name_origin": "Greek 'phosphoros' (light-bearer)"
  },
  "applications": [
    "Fertilizers (phosphate)",
    "Detergents",
    "Match heads (red phosphorus)",
    "Flame retardants",
    "Steel production (phosphor steel)",
    "Pesticides",
    "DNA and ATP (biochemistry)"
  ],
  "hazards": {
    "ghs_pictograms": [
      "GHS02",
      "GHS07"
    ],
    "signal_word": "Danger",
    "nfpa_704": {
      "health": 4,
      "flammability": 4,
      "reactivity": 2,
      "special": ""
    },
    "hazard_statements": [],
    "autoignition_temp_k": 307,
    "flash_point_k": null,
    "explosive_limits_percent": null
  },
  "reactions": [
    {
      "id": "C-biological-004",
      "name": "Glycolysis (net reaction)",
      "equation": "C6H12O6(s) + 2 NAD+(aq) + 2 ADP(aq) + 2 Pi(aq) -> 2 CH3COCOO-(aq) + 2 NADH(aq) + 2 ATP(aq) + 2 H2O(l)",
      "type": "glycolysis",
      "category": "biological",
      "delta_h_kj": -74,
      "conditions": "cytoplasm; 10 enzyme-catalyzed steps",
      "description": "Glucose to 2 pyruvate. Net 2 ATP + 2 NADH. Universal pathway in all domains of life.",
      "reversible": false
    },
    {
      "id": "C-biological-007",
      "name": "Krebs cycle (overall per acetyl-CoA)",
      "equation": "Acetyl-CoA + 3 NAD+ + FAD + GDP + Pi + 2 H2O -> CoA-SH + 2 CO2 + 3 NADH + FADH2 + GTP",
      "type": "oxidative cycle",
      "category": "biological",
      "delta_h_kj": null,
      "conditions": "mitochondrial matrix; 8 enzyme-catalyzed steps; regulated by [ATP]/[ADP]",
      "description": "Central metabolic hub. Oxidizes acetyl groups to CO2, generating electron carriers for ETC.",
      "reversible": false
    },
    {
      "id": "Ca-biological-001",
      "name": "Hydroxyapatite formation (bone mineralization)",
      "equation": "10 Ca2+(aq) + 6 PO4 3-(aq) + 2 OH-(aq) -> Ca10(PO4)6(OH)2(s)",
      "type": "mineralization",
      "category": "biological",
      "delta_h_kj": null,
      "conditions": "osteoblast-mediated; alkaline phosphatase; collagen matrix template",
      "description": "Hydroxyapatite is the mineral component of bone and teeth. ~70% of bone mass.",
      "reversible": false
    },
    {
      "id": "P-biological-001",
      "name": "ATP hydrolysis",
      "equation": "ATP(aq) + H2O(l) -> ADP(aq) + Pi(aq) + H+(aq)",
      "type": "hydrolysis",
      "category": "biological",
      "delta_h_kj": -30.5,
      "conditions": "Mg2+ cofactor; standard biochemical conditions (pH 7, 1mM)",
      "description": "Universal energy currency of life. Drives endergonic reactions by coupling. ~100 kg ATP recycled/day in humans.",
      "reversible": false
    },
    {
      "id": "P-biological-002",
      "name": "ATP synthesis (oxidative phosphorylation)",
      "equation": "ADP(aq) + Pi(aq) + H+(aq) -> ATP(aq) + H2O(l)",
      "type": "phosphorylation",
      "category": "biological",
      "delta_h_kj": 30.5,
      "conditions": "ATP synthase (Complex V); proton motive force across inner mitochondrial membrane",
      "description": "Chemiosmotic synthesis of ATP. F1Fo-ATP synthase rotary motor. ~26-28 ATP from one glucose.",
      "reversible": false
    },
    {
      "id": "P-industrial-001",
      "name": "Phosphorus production (electric arc furnace)",
      "equation": "2 Ca3(PO4)2(s) + 6 SiO2(s) + 10 C(s) -> P4(g) + 6 CaSiO3(l) + 10 CO(g)",
      "type": "reduction",
      "category": "industrial",
      "delta_h_kj": null,
      "conditions": "1773 K; electric arc furnace; P4 vapor condensed under water",
      "description": "White phosphorus production from phosphate rock via electric arc furnace.",
      "reversible": false
    },
    {
      "id": "P-industrial-002",
      "name": "Phosphoric acid production (wet process)",
      "equation": "Ca3(PO4)2(s) + 3 H2SO4(aq) -> 2 H3PO4(aq) + 3 CaSO4(s)",
      "type": "acid digestion",
      "category": "industrial",
      "delta_h_kj": null,
      "conditions": "353 K",
      "description": "Wet-process phosphoric acid for fertilizer production. Gypsum (CaSO4) byproduct.",
      "reversible": false
    },
    {
      "id": "P-notable-001",
      "name": "White phosphorus spontaneous combustion",
      "equation": "P4(s) + 5 O2(g) -> P4O10(s)",
      "type": "combustion",
      "category": "notable",
      "delta_h_kj": -2984,
      "conditions": "pyrophoric; ignites spontaneously in air above ~30C; stored under water",
      "description": "White phosphorus is pyrophoric. Ignites spontaneously in air. Must be stored under water. Extremely toxic.",
      "reversible": false
    }
  ]
}
