{
  "name": "Sulfur",
  "symbol": "S",
  "atomic_number": 16,
  "atomic_mass_u": 32.06,
  "atomic_mass_uncertainty_u": 0.01,
  "classification": {
    "group": 16,
    "period": 3,
    "block": "p",
    "category": "reactive nonmetal",
    "series": "nonmetal",
    "natural_occurrence": "primordial"
  },
  "atomic_structure": {
    "electron_configuration": "[Ne] 3s2 3p4",
    "electron_configuration_long": "1s2 2s2 2p6 3s2 3p4",
    "electron_shells": [
      2,
      8,
      6
    ],
    "valence_electrons": 6,
    "oxidation_states": [
      -2,
      -1,
      1,
      2,
      3,
      4,
      5,
      6
    ],
    "common_oxidation_states": [
      -2,
      4,
      6
    ],
    "electronegativity_pauling": 2.58,
    "ionization_energies_kj_mol": [
      999.6
    ],
    "electron_affinity_kj_mol": 200.41,
    "atomic_radius_pm": 88,
    "covalent_radius_pm": 105,
    "van_der_waals_radius_pm": 180
  },
  "physical_properties": {
    "phase_at_stp": "solid",
    "melting_point_k": 388.36,
    "boiling_point_k": 717.8,
    "density_kg_m3": 2070.0,
    "density_liquid_kg_m3": null,
    "triple_point_k": null,
    "triple_point_kpa": null,
    "critical_point_k": null,
    "critical_point_mpa": null,
    "heat_of_fusion_kj_mol": 1.727,
    "heat_of_vaporization_kj_mol": 45.0,
    "molar_heat_capacity_j_mol_k": 22.75,
    "color": "lemon yellow",
    "crystal_structure": "orthorhombic",
    "magnetic_ordering": "diamagnetic",
    "speed_of_sound_m_s": null,
    "thermal_conductivity_w_m_k": 0.205,
    "thermal_expansion_per_k": null,
    "mohs_hardness": null,
    "bulk_modulus_gpa": null,
    "shear_modulus_gpa": null,
    "young_modulus_gpa": null,
    "poisson_ratio": null
  },
  "nuclear_properties": {
    "radioactive": false,
    "half_life": null,
    "decay_mode": null,
    "stable_isotopes": [
      32,
      33,
      34,
      36
    ],
    "isotopes": [
      {
        "mass_number": 32,
        "symbol": "32S",
        "name": null,
        "neutrons": 16,
        "abundance_percent": 94.99,
        "mass_u": 31.972071,
        "half_life": "stable",
        "decay_mode": null,
        "spin": "0+"
      },
      {
        "mass_number": 33,
        "symbol": "33S",
        "name": null,
        "neutrons": 17,
        "abundance_percent": 0.75,
        "mass_u": 32.971459,
        "half_life": "stable",
        "decay_mode": null,
        "spin": "3/2+"
      },
      {
        "mass_number": 34,
        "symbol": "34S",
        "name": null,
        "neutrons": 18,
        "abundance_percent": 4.25,
        "mass_u": 33.967867,
        "half_life": "stable",
        "decay_mode": null,
        "spin": "0+"
      },
      {
        "mass_number": 36,
        "symbol": "36S",
        "name": null,
        "neutrons": 20,
        "abundance_percent": 0.01,
        "mass_u": 35.967081,
        "half_life": "stable",
        "decay_mode": null,
        "spin": "0+"
      }
    ]
  },
  "abundance": {
    "universe_percent": 0.05,
    "solar_percent": 0.05,
    "earth_crust_ppm": 350,
    "ocean_ppm": 905,
    "human_body_percent": 0.25
  },
  "discovery": {
    "year": null,
    "discoverers": [
      "Known since antiquity"
    ],
    "country": null,
    "named_by": null,
    "name_origin": "Latin 'sulphur'"
  },
  "applications": [
    "Sulfuric acid production (most produced chemical)",
    "Vulcanization of rubber",
    "Gunpowder",
    "Fungicides",
    "Bleaching agent",
    "Battery acid (lead-acid batteries)",
    "Pharmaceutical production"
  ],
  "hazards": {
    "ghs_pictograms": [
      "GHS07"
    ],
    "signal_word": "Warning",
    "nfpa_704": {
      "health": 2,
      "flammability": 1,
      "reactivity": 0,
      "special": ""
    },
    "hazard_statements": [],
    "autoignition_temp_k": null,
    "flash_point_k": null,
    "explosive_limits_percent": null
  },
  "reactions": [
    {
      "id": "C-biological-007",
      "name": "Krebs cycle (overall per acetyl-CoA)",
      "equation": "Acetyl-CoA + 3 NAD+ + FAD + GDP + Pi + 2 H2O -> CoA-SH + 2 CO2 + 3 NADH + FADH2 + GTP",
      "type": "oxidative cycle",
      "category": "biological",
      "delta_h_kj": null,
      "conditions": "mitochondrial matrix; 8 enzyme-catalyzed steps; regulated by [ATP]/[ADP]",
      "description": "Central metabolic hub. Oxidizes acetyl groups to CO2, generating electron carriers for ETC.",
      "reversible": false
    },
    {
      "id": "C-biological-008",
      "name": "Beta-oxidation of fatty acids (per cycle)",
      "equation": "Acyl-CoA(Cn) + FAD + NAD+ + CoA-SH + H2O -> Acyl-CoA(Cn-2) + FADH2 + NADH + Acetyl-CoA",
      "type": "oxidation",
      "category": "biological",
      "delta_h_kj": null,
      "conditions": "mitochondrial matrix; 4 enzymes per cycle; each cycle removes 2 carbons",
      "description": "Fatty acid catabolism. Each cycle yields 1 FADH2, 1 NADH, 1 acetyl-CoA (~14 ATP per cycle).",
      "reversible": false
    },
    {
      "id": "S-biological-001",
      "name": "Disulfide bond formation (protein folding)",
      "equation": "2 R-SH -> R-S-S-R + 2 H+ + 2 e-",
      "type": "oxidation",
      "category": "biological",
      "delta_h_kj": null,
      "conditions": "endoplasmic reticulum; protein disulfide isomerase (PDI)",
      "description": "Cysteine disulfide bridges stabilize protein tertiary structure. Oxidizing environment of ER.",
      "reversible": true
    },
    {
      "id": "S-environmental-001",
      "name": "Acid rain from SO2",
      "equation": "2 SO2(g) + O2(g) + 2 H2O(l) -> 2 H2SO4(aq)",
      "type": "acid rain",
      "category": "environmental",
      "delta_h_kj": null,
      "conditions": "atmospheric oxidation; SO2 from coal/ore smelting",
      "description": "Sulfuric acid formation in atmosphere. Major cause of acid rain. Addressed by Clean Air Act.",
      "reversible": false
    },
    {
      "id": "S-environmental-002",
      "name": "Sulfate reduction (deep ocean)",
      "equation": "SO4 2-(aq) + 2 CH2O(s) -> H2S(g) + 2 HCO3-(aq)",
      "type": "sulfate reduction",
      "category": "environmental",
      "delta_h_kj": null,
      "conditions": "sulfate-reducing bacteria (Desulfovibrio); anaerobic marine sediments",
      "description": "Microbial sulfate reduction. Produces H2S (rotten egg smell). Forms black FeS in sediments.",
      "reversible": false
    },
    {
      "id": "Cu-industrial-001",
      "name": "Copper matte smelting",
      "equation": "2 Cu2S(s) + 3 O2(g) -> 2 Cu2O(s) + 2 SO2(g)",
      "type": "roasting",
      "category": "industrial",
      "delta_h_kj": -773,
      "conditions": "1473 K",
      "description": "Partial roasting of copper matte in converting furnace.",
      "reversible": false
    },
    {
      "id": "Cu-industrial-002",
      "name": "Copper blister formation",
      "equation": "Cu2S(s) + 2 Cu2O(s) -> 6 Cu(l) + SO2(g)",
      "type": "reduction",
      "category": "industrial",
      "delta_h_kj": null,
      "conditions": "1473 K",
      "description": "Self-reduction of Cu2S by Cu2O to produce blister copper (~99% Cu).",
      "reversible": false
    },
    {
      "id": "P-industrial-002",
      "name": "Phosphoric acid production (wet process)",
      "equation": "Ca3(PO4)2(s) + 3 H2SO4(aq) -> 2 H3PO4(aq) + 3 CaSO4(s)",
      "type": "acid digestion",
      "category": "industrial",
      "delta_h_kj": null,
      "conditions": "353 K",
      "description": "Wet-process phosphoric acid for fertilizer production. Gypsum (CaSO4) byproduct.",
      "reversible": false
    },
    {
      "id": "Pb-industrial-001",
      "name": "Lead smelting",
      "equation": "2 PbS(s) + 3 O2(g) -> 2 PbO(s) + 2 SO2(g)",
      "type": "roasting",
      "category": "industrial",
      "delta_h_kj": -844,
      "conditions": "1173 K",
      "description": "Roasting of galena (PbS) to lead oxide, then reduced with carbon to lead metal.",
      "reversible": false
    },
    {
      "id": "S-industrial-001",
      "name": "Contact process step 1 (sulfur combustion)",
      "equation": "S(s) + O2(g) -> SO2(g)",
      "type": "combustion",
      "category": "industrial",
      "delta_h_kj": -296.8,
      "conditions": null,
      "description": "First step of the Contact process for sulfuric acid production.",
      "reversible": false
    },
    {
      "id": "S-industrial-002",
      "name": "Contact process step 2 (SO2 oxidation)",
      "equation": "2 SO2(g) + O2(g) <=> 2 SO3(g)",
      "type": "oxidation",
      "category": "industrial",
      "delta_h_kj": -198,
      "conditions": "723 K; vanadium(V) oxide (V2O5)",
      "description": "Key catalytic step of the Contact process. ~99.5% conversion.",
      "reversible": true
    },
    {
      "id": "S-industrial-003",
      "name": "Contact process step 3 (oleum formation)",
      "equation": "SO3(g) + H2SO4(l) -> H2S2O7(l)",
      "type": "absorption",
      "category": "industrial",
      "delta_h_kj": -113,
      "conditions": null,
      "description": "SO3 absorbed into concentrated H2SO4 to form oleum (fuming sulfuric acid).",
      "reversible": false
    },
    {
      "id": "S-industrial-004",
      "name": "Oleum dilution to sulfuric acid",
      "equation": "H2S2O7(l) + H2O(l) -> 2 H2SO4(l)",
      "type": "hydrolysis",
      "category": "industrial",
      "delta_h_kj": -80,
      "conditions": null,
      "description": "Oleum diluted with water to produce concentrated sulfuric acid.",
      "reversible": false
    },
    {
      "id": "S-industrial-005",
      "name": "Claus process (main reaction)",
      "equation": "2 H2S(g) + SO2(g) -> 3 S(s) + 2 H2O(g)",
      "type": "redox",
      "category": "industrial",
      "delta_h_kj": -146,
      "conditions": "573 K; alumina or titanium dioxide",
      "description": "Recovers elemental sulfur from H2S in natural gas/refinery streams. >95% recovery.",
      "reversible": false
    },
    {
      "id": "S-industrial-006",
      "name": "Frasch process sulfur melting",
      "equation": "S(s) -> S(l)",
      "type": "phase change",
      "category": "industrial",
      "delta_h_kj": 1.7,
      "conditions": "388 K; superheated water (165C) injected underground to melt sulfur deposits",
      "description": "Frasch process mines sulfur by melting underground deposits with superheated water.",
      "reversible": false
    },
    {
      "id": "Zn-industrial-001",
      "name": "Zinc roasting",
      "equation": "2 ZnS(s) + 3 O2(g) -> 2 ZnO(s) + 2 SO2(g)",
      "type": "roasting",
      "category": "industrial",
      "delta_h_kj": -879,
      "conditions": "1173 K",
      "description": "Roasting sphalerite (ZnS) to zinc oxide for subsequent reduction.",
      "reversible": false
    },
    {
      "id": "Ba-laboratory-001",
      "name": "Barium sulfate precipitation (sulfate test)",
      "equation": "BaCl2(aq) + Na2SO4(aq) -> BaSO4(s) + 2 NaCl(aq)",
      "type": "precipitation",
      "category": "laboratory",
      "delta_h_kj": null,
      "conditions": "add BaCl2 in dilute HCl to acidified sample",
      "description": "Confirmatory test for sulfate ions. White precipitate insoluble in dilute HCl. Ksp = 1.1e-10.",
      "reversible": false
    },
    {
      "id": "Fe-laboratory-001",
      "name": "Iron(III) thiocyanate test",
      "equation": "Fe3+(aq) + 3 SCN-(aq) -> Fe(SCN)3(aq)",
      "type": "complexation",
      "category": "laboratory",
      "delta_h_kj": null,
      "conditions": null,
      "description": "Blood-red color confirms Fe3+ ions. Very sensitive test. Used in equilibrium demonstrations.",
      "reversible": false
    },
    {
      "id": "H-laboratory-002",
      "name": "Sulfuric acid + sodium hydroxide",
      "equation": "H2SO4(aq) + 2 NaOH(aq) -> Na2SO4(aq) + 2 H2O(l)",
      "type": "neutralization",
      "category": "laboratory",
      "delta_h_kj": -114.2,
      "conditions": null,
      "description": "Diprotic acid neutralization. Two moles of NaOH required per mole of H2SO4.",
      "reversible": false
    },
    {
      "id": "I-laboratory-001",
      "name": "Iodometric titration (thiosulfate)",
      "equation": "I2(aq) + 2 Na2S2O3(aq) -> 2 NaI(aq) + Na2S4O6(aq)",
      "type": "redox titration",
      "category": "laboratory",
      "delta_h_kj": null,
      "conditions": "starch indicator turns blue-black with I2",
      "description": "Iodometric back-titration. Starch indicator; blue to colorless at endpoint.",
      "reversible": false
    },
    {
      "id": "S-laboratory-001",
      "name": "Sulfur dioxide generation",
      "equation": "Na2SO3(s) + H2SO4(aq) -> Na2SO4(aq) + H2O(l) + SO2(g)",
      "type": "acid-salt",
      "category": "laboratory",
      "delta_h_kj": null,
      "conditions": "fume hood required; SO2 is toxic",
      "description": "Lab preparation of SO2 from sulfite salt and acid. Bleaches damp litmus.",
      "reversible": false
    },
    {
      "id": "C-notable-002",
      "name": "Barking dog reaction",
      "equation": "2 CS2(l) + 6 N2O(g) -> 2 CO2(g) + 6 N2(g) + 4 SO2(g)",
      "type": "combustion",
      "category": "notable",
      "delta_h_kj": null,
      "conditions": "ignite CS2/N2O mixture in long tube; blue flame + barking sound",
      "description": "CS2 vapor and N2O combust with distinctive barking sound and blue flash. Popular demonstration.",
      "reversible": false
    },
    {
      "id": "Cu-notable-001",
      "name": "Copper sulfate + iron (tree of Diana)",
      "equation": "Fe(s) + CuSO4(aq) -> FeSO4(aq) + Cu(s)",
      "type": "single displacement",
      "category": "notable",
      "delta_h_kj": -153,
      "conditions": "iron nail in CuSO4 solution; copper plates out as reddish deposit",
      "description": "Iron displaces copper from solution. Classic activity series demonstration. Reddish copper deposits on iron.",
      "reversible": false
    }
  ]
}
