{
  "name": "Potassium",
  "symbol": "K",
  "atomic_number": 19,
  "atomic_mass_u": 39.098,
  "atomic_mass_uncertainty_u": 0.001,
  "classification": {
    "group": 1,
    "period": 4,
    "block": "s",
    "category": "alkali metal",
    "series": "alkali metal",
    "natural_occurrence": "primordial"
  },
  "atomic_structure": {
    "electron_configuration": "[Ar] 4s1",
    "electron_configuration_long": "1s2 2s2 2p6 3s2 3p6 4s1",
    "electron_shells": [
      2,
      8,
      8,
      1
    ],
    "valence_electrons": 1,
    "oxidation_states": [
      -1,
      1
    ],
    "common_oxidation_states": [
      1
    ],
    "electronegativity_pauling": 0.82,
    "ionization_energies_kj_mol": [
      418.8
    ],
    "electron_affinity_kj_mol": 48.383,
    "atomic_radius_pm": 243,
    "covalent_radius_pm": 203,
    "van_der_waals_radius_pm": 275
  },
  "physical_properties": {
    "phase_at_stp": "solid",
    "melting_point_k": 336.7,
    "boiling_point_k": 1032.0,
    "density_kg_m3": 862.0,
    "density_liquid_kg_m3": 828.0,
    "triple_point_k": null,
    "triple_point_kpa": null,
    "critical_point_k": null,
    "critical_point_mpa": null,
    "heat_of_fusion_kj_mol": 2.33,
    "heat_of_vaporization_kj_mol": 76.9,
    "molar_heat_capacity_j_mol_k": 29.6,
    "color": "silvery-white",
    "crystal_structure": "body-centered cubic",
    "magnetic_ordering": "paramagnetic",
    "speed_of_sound_m_s": 2000,
    "thermal_conductivity_w_m_k": 102.5,
    "thermal_expansion_per_k": 8.33e-05,
    "mohs_hardness": 0.4,
    "bulk_modulus_gpa": 3.1,
    "shear_modulus_gpa": null,
    "young_modulus_gpa": null,
    "poisson_ratio": null
  },
  "nuclear_properties": {
    "radioactive": false,
    "half_life": null,
    "decay_mode": null,
    "stable_isotopes": [
      39,
      41
    ],
    "isotopes": [
      {
        "mass_number": 39,
        "symbol": "39K",
        "name": null,
        "neutrons": 20,
        "abundance_percent": 93.2581,
        "mass_u": 38.963707,
        "half_life": "stable",
        "decay_mode": null,
        "spin": "3/2+"
      },
      {
        "mass_number": 40,
        "symbol": "40K",
        "name": null,
        "neutrons": 21,
        "abundance_percent": 0.0117,
        "mass_u": 39.963999,
        "half_life": "1.248e9 y",
        "decay_mode": "beta-minus/EC",
        "spin": "4-"
      },
      {
        "mass_number": 41,
        "symbol": "41K",
        "name": null,
        "neutrons": 22,
        "abundance_percent": 6.7302,
        "mass_u": 40.961826,
        "half_life": "stable",
        "decay_mode": null,
        "spin": "3/2+"
      }
    ]
  },
  "abundance": {
    "universe_percent": 0.0003,
    "solar_percent": 0.0003,
    "earth_crust_ppm": 20900,
    "ocean_ppm": 399,
    "human_body_percent": 0.2
  },
  "discovery": {
    "year": 1807,
    "discoverers": [
      "Humphry Davy"
    ],
    "country": "England",
    "named_by": "Humphry Davy",
    "name_origin": "English 'potash' / Latin 'kalium'"
  },
  "applications": [
    "Fertilizers (potash - KCl, K2SO4)",
    "Soap production (KOH)",
    "Glass manufacturing",
    "Photography (KBr)",
    "Salt substitute (KCl)",
    "Potassium permanganate (water treatment)"
  ],
  "hazards": {
    "ghs_pictograms": [
      "GHS02",
      "GHS05"
    ],
    "signal_word": "Danger",
    "nfpa_704": {
      "health": 3,
      "flammability": 3,
      "reactivity": 2,
      "special": "W"
    },
    "hazard_statements": [],
    "autoignition_temp_k": 397,
    "flash_point_k": null,
    "explosive_limits_percent": null
  },
  "reactions": [
    {
      "id": "K-laboratory-001",
      "name": "Flame test (potassium)",
      "equation": "K(s) -> K*(g) -> K(g) + hv (766 nm)",
      "type": "emission",
      "category": "laboratory",
      "delta_h_kj": null,
      "conditions": "view through cobalt blue glass to filter out sodium yellow",
      "description": "Lilac/violet flame for potassium. Best observed through blue cobalt glass.",
      "reversible": false
    },
    {
      "id": "K-laboratory-002",
      "name": "Potassium chlorate decomposition",
      "equation": "2 KClO3(s) -> 2 KCl(s) + 3 O2(g)",
      "type": "decomposition",
      "category": "laboratory",
      "delta_h_kj": -89.4,
      "conditions": "673 K; MnO2 lowers temperature to ~523K",
      "description": "Thermal decomposition accelerated by MnO2 catalyst. Historically used for O2 preparation.",
      "reversible": false
    },
    {
      "id": "Pb-laboratory-001",
      "name": "Lead(II) iodide precipitation",
      "equation": "Pb(NO3)2(aq) + 2 KI(aq) -> PbI2(s) + 2 KNO3(aq)",
      "type": "precipitation",
      "category": "laboratory",
      "delta_h_kj": null,
      "conditions": "bright yellow precipitate; 'golden rain' demo when hot solution cooled",
      "description": "Golden rain experiment. Bright yellow PbI2 crystallizes from hot solution on cooling.",
      "reversible": false
    },
    {
      "id": "K-notable-001",
      "name": "Potassium in water",
      "equation": "2 K(s) + 2 H2O(l) -> 2 KOH(aq) + H2(g)",
      "type": "single displacement",
      "category": "notable",
      "delta_h_kj": -392,
      "conditions": "more violent than Na; lilac flame from K vapor; may explode",
      "description": "Even more violent than sodium. H2 always ignites with lilac flame. Can explode.",
      "reversible": false
    }
  ]
}
