{
  "name": "Calcium",
  "symbol": "Ca",
  "atomic_number": 20,
  "atomic_mass_u": 40.078,
  "atomic_mass_uncertainty_u": 0.004,
  "classification": {
    "group": 2,
    "period": 4,
    "block": "s",
    "category": "alkaline earth metal",
    "series": "alkaline earth metal",
    "natural_occurrence": "primordial"
  },
  "atomic_structure": {
    "electron_configuration": "[Ar] 4s2",
    "electron_configuration_long": "1s2 2s2 2p6 3s2 3p6 4s2",
    "electron_shells": [
      2,
      8,
      8,
      2
    ],
    "valence_electrons": 2,
    "oxidation_states": [
      1,
      2
    ],
    "common_oxidation_states": [
      2
    ],
    "electronegativity_pauling": 1.0,
    "ionization_energies_kj_mol": [
      589.8
    ],
    "electron_affinity_kj_mol": 2.37,
    "atomic_radius_pm": 194,
    "covalent_radius_pm": 176,
    "van_der_waals_radius_pm": 231
  },
  "physical_properties": {
    "phase_at_stp": "solid",
    "melting_point_k": 1115.0,
    "boiling_point_k": 1757.0,
    "density_kg_m3": 1550.0,
    "density_liquid_kg_m3": null,
    "triple_point_k": null,
    "triple_point_kpa": null,
    "critical_point_k": null,
    "critical_point_mpa": null,
    "heat_of_fusion_kj_mol": 8.54,
    "heat_of_vaporization_kj_mol": 154.7,
    "molar_heat_capacity_j_mol_k": 25.929,
    "color": "pale yellow",
    "crystal_structure": "face-centered cubic",
    "magnetic_ordering": "paramagnetic",
    "speed_of_sound_m_s": 3810,
    "thermal_conductivity_w_m_k": 201.0,
    "thermal_expansion_per_k": 2.23e-05,
    "mohs_hardness": 1.75,
    "bulk_modulus_gpa": 17,
    "shear_modulus_gpa": null,
    "young_modulus_gpa": null,
    "poisson_ratio": null
  },
  "nuclear_properties": {
    "radioactive": false,
    "half_life": null,
    "decay_mode": null,
    "stable_isotopes": [
      40,
      42,
      43,
      44,
      46
    ],
    "isotopes": [
      {
        "mass_number": 40,
        "symbol": "40Ca",
        "name": null,
        "neutrons": 20,
        "abundance_percent": 96.941,
        "mass_u": 39.962591,
        "half_life": "stable",
        "decay_mode": null,
        "spin": "0+"
      },
      {
        "mass_number": 42,
        "symbol": "42Ca",
        "name": null,
        "neutrons": 22,
        "abundance_percent": 0.647,
        "mass_u": 41.958618,
        "half_life": "stable",
        "decay_mode": null,
        "spin": "0+"
      },
      {
        "mass_number": 44,
        "symbol": "44Ca",
        "name": null,
        "neutrons": 24,
        "abundance_percent": 2.086,
        "mass_u": 43.955482,
        "half_life": "stable",
        "decay_mode": null,
        "spin": "0+"
      }
    ]
  },
  "abundance": {
    "universe_percent": 0.007,
    "solar_percent": 0.007,
    "earth_crust_ppm": 41500,
    "ocean_ppm": 412,
    "human_body_percent": 1.5
  },
  "discovery": {
    "year": 1808,
    "discoverers": [
      "Humphry Davy"
    ],
    "country": "England",
    "named_by": "Humphry Davy",
    "name_origin": "Latin 'calx' (lime)"
  },
  "applications": [
    "Cement and concrete (CaCO3, CaO)",
    "Steel production (desulfurization)",
    "Plaster of Paris (CaSO4)",
    "Antacids (CaCO3)",
    "Water treatment (lime)",
    "Food additive (calcium fortification)",
    "Chalk"
  ],
  "hazards": {
    "ghs_pictograms": [
      "GHS05"
    ],
    "signal_word": "Warning",
    "nfpa_704": null,
    "hazard_statements": [],
    "autoignition_temp_k": null,
    "flash_point_k": null,
    "explosive_limits_percent": null
  },
  "reactions": [
    {
      "id": "Ca-biological-001",
      "name": "Hydroxyapatite formation (bone mineralization)",
      "equation": "10 Ca2+(aq) + 6 PO4 3-(aq) + 2 OH-(aq) -> Ca10(PO4)6(OH)2(s)",
      "type": "mineralization",
      "category": "biological",
      "delta_h_kj": null,
      "conditions": "osteoblast-mediated; alkaline phosphatase; collagen matrix template",
      "description": "Hydroxyapatite is the mineral component of bone and teeth. ~70% of bone mass.",
      "reversible": false
    },
    {
      "id": "Ca-environmental-001",
      "name": "Chemical weathering of limestone",
      "equation": "CaCO3(s) + CO2(g) + H2O(l) -> Ca(HCO3)2(aq)",
      "type": "weathering",
      "category": "environmental",
      "delta_h_kj": null,
      "conditions": "rain dissolves atmospheric CO2 forming weak carbonic acid",
      "description": "Creates caves, karst topography. Major CO2 sink on geological timescale. Causes hard water.",
      "reversible": true
    },
    {
      "id": "Si-environmental-001",
      "name": "Silicate weathering (CO2 sink)",
      "equation": "CaSiO3(s) + 2 CO2(g) + 3 H2O(l) -> Ca2+(aq) + 2 HCO3-(aq) + H4SiO4(aq)",
      "type": "weathering",
      "category": "environmental",
      "delta_h_kj": null,
      "conditions": "geological timescale; thermostat of Earth's climate",
      "description": "Silicate weathering is the primary geological CO2 sink. Urey reaction controls climate over millions of years.",
      "reversible": false
    },
    {
      "id": "Ca-industrial-001",
      "name": "Cement clinker formation (limestone calcination)",
      "equation": "CaCO3(s) -> CaO(s) + CO2(g)",
      "type": "decomposition",
      "category": "industrial",
      "delta_h_kj": 178,
      "conditions": "1173 K; rotary kiln",
      "description": "Calcination of limestone. Major source of industrial CO2 emissions.",
      "reversible": false
    },
    {
      "id": "Ca-industrial-002",
      "name": "Portland cement clinker (belite formation)",
      "equation": "2 CaO(s) + SiO2(s) -> Ca2SiO4(s)",
      "type": "synthesis",
      "category": "industrial",
      "delta_h_kj": -127,
      "conditions": "1723 K; rotary kiln; belite (C2S) phase",
      "description": "Calcium silicate (belite) formation in cement kiln. Key hydraulic phase.",
      "reversible": false
    },
    {
      "id": "Fe-industrial-004",
      "name": "Slag formation in steelmaking",
      "equation": "CaO(s) + SiO2(s) -> CaSiO3(l)",
      "type": "fusion",
      "category": "industrial",
      "delta_h_kj": -89,
      "conditions": "1873 K; limestone flux in blast furnace",
      "description": "CaO flux combines with silica impurities to form slag.",
      "reversible": false
    },
    {
      "id": "Na-industrial-001",
      "name": "Solvay process (overall)",
      "equation": "2 NaCl(aq) + CaCO3(s) -> Na2CO3(s) + CaCl2(aq)",
      "type": "double displacement",
      "category": "industrial",
      "delta_h_kj": null,
      "conditions": "multi-step process using NH3 as intermediate",
      "description": "Overall Solvay process for soda ash (Na2CO3). Key step involves NaHCO3 precipitation.",
      "reversible": false
    },
    {
      "id": "P-industrial-001",
      "name": "Phosphorus production (electric arc furnace)",
      "equation": "2 Ca3(PO4)2(s) + 6 SiO2(s) + 10 C(s) -> P4(g) + 6 CaSiO3(l) + 10 CO(g)",
      "type": "reduction",
      "category": "industrial",
      "delta_h_kj": null,
      "conditions": "1773 K; electric arc furnace; P4 vapor condensed under water",
      "description": "White phosphorus production from phosphate rock via electric arc furnace.",
      "reversible": false
    },
    {
      "id": "P-industrial-002",
      "name": "Phosphoric acid production (wet process)",
      "equation": "Ca3(PO4)2(s) + 3 H2SO4(aq) -> 2 H3PO4(aq) + 3 CaSO4(s)",
      "type": "acid digestion",
      "category": "industrial",
      "delta_h_kj": null,
      "conditions": "353 K",
      "description": "Wet-process phosphoric acid for fertilizer production. Gypsum (CaSO4) byproduct.",
      "reversible": false
    },
    {
      "id": "C-laboratory-001",
      "name": "CO2 generation (marble + HCl)",
      "equation": "CaCO3(s) + 2 HCl(aq) -> CaCl2(aq) + H2O(l) + CO2(g)",
      "type": "acid-carbonate",
      "category": "laboratory",
      "delta_h_kj": -16,
      "conditions": null,
      "description": "Reaction of marble chips (CaCO3) with hydrochloric acid. Common CO2 source in lab.",
      "reversible": false
    },
    {
      "id": "Ca-laboratory-001",
      "name": "Calcium carbonate precipitation",
      "equation": "CaCl2(aq) + Na2CO3(aq) -> CaCO3(s) + 2 NaCl(aq)",
      "type": "precipitation",
      "category": "laboratory",
      "delta_h_kj": null,
      "conditions": null,
      "description": "White precipitate of calcium carbonate. Dissolves in dilute acid with effervescence.",
      "reversible": false
    }
  ]
}
