{
  "name": "Scandium",
  "symbol": "Sc",
  "atomic_number": 21,
  "atomic_mass_u": 44.956,
  "atomic_mass_uncertainty_u": 0.001,
  "classification": {
    "group": 3,
    "period": 4,
    "block": "d",
    "category": "transition metal",
    "series": "transition metal",
    "natural_occurrence": "primordial"
  },
  "atomic_structure": {
    "electron_configuration": "[Ar] 3d1 4s2",
    "electron_configuration_long": "1s2 2s2 2p6 3s2 3p6 3d1 4s2",
    "electron_shells": [
      2,
      8,
      9,
      2
    ],
    "valence_electrons": 3,
    "oxidation_states": [
      1,
      2,
      3
    ],
    "common_oxidation_states": [
      3
    ],
    "electronegativity_pauling": 1.36,
    "ionization_energies_kj_mol": [
      633.1
    ],
    "electron_affinity_kj_mol": 18.0,
    "atomic_radius_pm": 184,
    "covalent_radius_pm": 170,
    "van_der_waals_radius_pm": 211
  },
  "physical_properties": {
    "phase_at_stp": "solid",
    "melting_point_k": 1814.0,
    "boiling_point_k": 3109.0,
    "density_kg_m3": 2985.0,
    "density_liquid_kg_m3": null,
    "triple_point_k": null,
    "triple_point_kpa": null,
    "critical_point_k": null,
    "critical_point_mpa": null,
    "heat_of_fusion_kj_mol": 14.1,
    "heat_of_vaporization_kj_mol": 332.7,
    "molar_heat_capacity_j_mol_k": 25.52,
    "color": "silvery-white",
    "crystal_structure": "hexagonal close-packed",
    "magnetic_ordering": "paramagnetic",
    "speed_of_sound_m_s": null,
    "thermal_conductivity_w_m_k": 15.8,
    "thermal_expansion_per_k": null,
    "mohs_hardness": null,
    "bulk_modulus_gpa": null,
    "shear_modulus_gpa": null,
    "young_modulus_gpa": null,
    "poisson_ratio": null
  },
  "nuclear_properties": {
    "radioactive": false,
    "half_life": null,
    "decay_mode": null,
    "stable_isotopes": [
      45
    ],
    "isotopes": [
      {
        "mass_number": 45,
        "symbol": "45Sc",
        "name": null,
        "neutrons": 24,
        "abundance_percent": 100.0,
        "mass_u": 44.956,
        "half_life": "stable",
        "decay_mode": null,
        "spin": null
      }
    ]
  },
  "abundance": {
    "universe_percent": 3e-06,
    "solar_percent": 3e-06,
    "earth_crust_ppm": 22,
    "ocean_ppm": 6e-07,
    "human_body_percent": null
  },
  "discovery": {
    "year": 1879,
    "discoverers": [
      "Lars Fredrik Nilson"
    ],
    "country": "Sweden",
    "named_by": "Lars Fredrik Nilson",
    "name_origin": "Latin 'Scandia' (Scandinavia)"
  },
  "applications": [
    "Aerospace alloys (Sc-Al)",
    "Metal-halide lamps",
    "Nuclear research"
  ],
  "hazards": {
    "ghs_pictograms": [],
    "signal_word": null,
    "nfpa_704": null,
    "hazard_statements": [],
    "autoignition_temp_k": null,
    "flash_point_k": null,
    "explosive_limits_percent": null
  },
  "reactions": []
}