{
  "name": "Chromium",
  "symbol": "Cr",
  "atomic_number": 24,
  "atomic_mass_u": 51.996,
  "atomic_mass_uncertainty_u": 0.001,
  "classification": {
    "group": 6,
    "period": 4,
    "block": "d",
    "category": "transition metal",
    "series": "transition metal",
    "natural_occurrence": "primordial"
  },
  "atomic_structure": {
    "electron_configuration": "[Ar] 3d5 4s1",
    "electron_configuration_long": "1s2 2s2 2p6 3s2 3p6 3d5 4s1",
    "electron_shells": [
      2,
      8,
      13,
      1
    ],
    "valence_electrons": 6,
    "oxidation_states": [
      -4,
      -2,
      -1,
      1,
      2,
      3,
      4,
      5,
      6
    ],
    "common_oxidation_states": [
      3,
      6
    ],
    "electronegativity_pauling": 1.66,
    "ionization_energies_kj_mol": [
      652.9
    ],
    "electron_affinity_kj_mol": 65.21,
    "atomic_radius_pm": 166,
    "covalent_radius_pm": 139,
    "van_der_waals_radius_pm": null
  },
  "physical_properties": {
    "phase_at_stp": "solid",
    "melting_point_k": 2180.0,
    "boiling_point_k": 2944.0,
    "density_kg_m3": 7150.0,
    "density_liquid_kg_m3": null,
    "triple_point_k": null,
    "triple_point_kpa": null,
    "critical_point_k": null,
    "critical_point_mpa": null,
    "heat_of_fusion_kj_mol": 21.0,
    "heat_of_vaporization_kj_mol": 339.5,
    "molar_heat_capacity_j_mol_k": 23.35,
    "color": "silvery",
    "crystal_structure": "body-centered cubic",
    "magnetic_ordering": "antiferromagnetic",
    "speed_of_sound_m_s": 5940,
    "thermal_conductivity_w_m_k": 93.9,
    "thermal_expansion_per_k": 4.9e-06,
    "mohs_hardness": 8.5,
    "bulk_modulus_gpa": 160,
    "shear_modulus_gpa": 115,
    "young_modulus_gpa": 279,
    "poisson_ratio": 0.21
  },
  "nuclear_properties": {
    "radioactive": false,
    "half_life": null,
    "decay_mode": null,
    "stable_isotopes": [
      50,
      52,
      53,
      54
    ],
    "isotopes": [
      {
        "mass_number": 52,
        "symbol": "52Cr",
        "name": null,
        "neutrons": 28,
        "abundance_percent": null,
        "mass_u": 51.996,
        "half_life": "stable",
        "decay_mode": null,
        "spin": null
      }
    ]
  },
  "abundance": {
    "universe_percent": 0.0015,
    "solar_percent": 0.0015,
    "earth_crust_ppm": 102,
    "ocean_ppm": 0.0003,
    "human_body_percent": 3e-06
  },
  "discovery": {
    "year": 1797,
    "discoverers": [
      "Louis Nicolas Vauquelin"
    ],
    "country": "France",
    "named_by": "Louis Nicolas Vauquelin",
    "name_origin": "Greek 'chroma' (color)"
  },
  "applications": [
    "Stainless steel (chromium plating)",
    "Chrome plating (decorative/protective)",
    "Pigments (chrome yellow, chrome green)",
    "Tanning leather",
    "Catalysts",
    "Refractory bricks"
  ],
  "hazards": {
    "ghs_pictograms": [
      "GHS08",
      "GHS09"
    ],
    "signal_word": "Danger",
    "nfpa_704": null,
    "hazard_statements": [],
    "autoignition_temp_k": null,
    "flash_point_k": null,
    "explosive_limits_percent": null
  },
  "reactions": [
    {
      "id": "Cr-industrial-001",
      "name": "Chromium production (aluminothermic)",
      "equation": "Cr2O3(s) + 2 Al(s) -> 2 Cr(s) + Al2O3(s)",
      "type": "aluminothermic",
      "category": "industrial",
      "delta_h_kj": -536,
      "conditions": "thermite-type reaction; used for ferrochrome alloy",
      "description": "Aluminothermic reduction of chromium oxide for chromium metal production.",
      "reversible": false
    },
    {
      "id": "Cr-laboratory-001",
      "name": "Dichromate titration of iron(II)",
      "equation": "Cr2O7 2-(aq) + 6 Fe2+(aq) + 14 H+(aq) -> 2 Cr3+(aq) + 6 Fe3+(aq) + 7 H2O(l)",
      "type": "redox titration",
      "category": "laboratory",
      "delta_h_kj": null,
      "conditions": "diphenylamine or ferroin indicator",
      "description": "Dichromate is a primary standard (unlike permanganate). Orange to green color change.",
      "reversible": false
    },
    {
      "id": "N-laboratory-002",
      "name": "Ammonium dichromate volcano",
      "equation": "(NH4)2Cr2O7(s) -> N2(g) + Cr2O3(s) + 4 H2O(g)",
      "type": "decomposition",
      "category": "laboratory",
      "delta_h_kj": -429,
      "conditions": "ignite with match; spectacular volcanic eruption; toxic Cr(III) product",
      "description": "Chemical volcano demonstration. Self-sustaining decomposition once ignited.",
      "reversible": false
    }
  ]
}
