{
  "name": "Manganese",
  "symbol": "Mn",
  "atomic_number": 25,
  "atomic_mass_u": 54.938,
  "atomic_mass_uncertainty_u": 0.001,
  "classification": {
    "group": 7,
    "period": 4,
    "block": "d",
    "category": "transition metal",
    "series": "transition metal",
    "natural_occurrence": "primordial"
  },
  "atomic_structure": {
    "electron_configuration": "[Ar] 3d5 4s2",
    "electron_configuration_long": "1s2 2s2 2p6 3s2 3p6 3d5 4s2",
    "electron_shells": [
      2,
      8,
      13,
      2
    ],
    "valence_electrons": 7,
    "oxidation_states": [
      -3,
      -2,
      -1,
      1,
      2,
      3,
      4,
      5,
      6,
      7
    ],
    "common_oxidation_states": [
      2,
      4,
      7
    ],
    "electronegativity_pauling": 1.55,
    "ionization_energies_kj_mol": [
      717.3
    ],
    "electron_affinity_kj_mol": -50.0,
    "atomic_radius_pm": 161,
    "covalent_radius_pm": 139,
    "van_der_waals_radius_pm": null
  },
  "physical_properties": {
    "phase_at_stp": "solid",
    "melting_point_k": 1519.0,
    "boiling_point_k": 2334.0,
    "density_kg_m3": 7470.0,
    "density_liquid_kg_m3": null,
    "triple_point_k": null,
    "triple_point_kpa": null,
    "critical_point_k": null,
    "critical_point_mpa": null,
    "heat_of_fusion_kj_mol": 12.91,
    "heat_of_vaporization_kj_mol": 221.0,
    "molar_heat_capacity_j_mol_k": 26.32,
    "color": "silvery",
    "crystal_structure": "body-centered cubic",
    "magnetic_ordering": "paramagnetic",
    "speed_of_sound_m_s": 5150,
    "thermal_conductivity_w_m_k": 7.81,
    "thermal_expansion_per_k": 2.17e-05,
    "mohs_hardness": 6.0,
    "bulk_modulus_gpa": 120,
    "shear_modulus_gpa": 76,
    "young_modulus_gpa": 198,
    "poisson_ratio": 0.29
  },
  "nuclear_properties": {
    "radioactive": false,
    "half_life": null,
    "decay_mode": null,
    "stable_isotopes": [
      55
    ],
    "isotopes": [
      {
        "mass_number": 55,
        "symbol": "55Mn",
        "name": null,
        "neutrons": 30,
        "abundance_percent": 100.0,
        "mass_u": 54.938,
        "half_life": "stable",
        "decay_mode": null,
        "spin": null
      }
    ]
  },
  "abundance": {
    "universe_percent": 0.0008,
    "solar_percent": 0.0008,
    "earth_crust_ppm": 950,
    "ocean_ppm": 0.0002,
    "human_body_percent": 1.7e-05
  },
  "discovery": {
    "year": 1774,
    "discoverers": [
      "Johan Gottlieb Gahn"
    ],
    "country": "Sweden",
    "named_by": null,
    "name_origin": "Latin 'magnes' (magnet)"
  },
  "applications": [
    "Steel production (ferromanganese)",
    "Aluminum alloys",
    "Batteries (MnO2 in alkaline cells)",
    "Glass decolorizing",
    "Potassium permanganate",
    "Catalysts"
  ],
  "hazards": {
    "ghs_pictograms": [
      "GHS07",
      "GHS09"
    ],
    "signal_word": "Warning",
    "nfpa_704": null,
    "hazard_statements": [],
    "autoignition_temp_k": null,
    "flash_point_k": null,
    "explosive_limits_percent": null
  },
  "reactions": [
    {
      "id": "Mn-industrial-001",
      "name": "Manganese dioxide reduction (ferromanganese)",
      "equation": "MnO2(s) + 2 C(s) -> Mn(s) + 2 CO(g)",
      "type": "reduction",
      "category": "industrial",
      "delta_h_kj": null,
      "conditions": "1573 K; electric arc furnace for ferromanganese",
      "description": "Carbothermic reduction of pyrolusite. 90% of Mn used in steel production.",
      "reversible": false
    },
    {
      "id": "Cl-laboratory-001",
      "name": "Chlorine generation (MnO2 + HCl)",
      "equation": "MnO2(s) + 4 HCl(aq) -> MnCl2(aq) + 2 H2O(l) + Cl2(g)",
      "type": "oxidation",
      "category": "laboratory",
      "delta_h_kj": null,
      "conditions": "use concentrated HCl; fume hood required",
      "description": "Laboratory chlorine preparation. Scheele's original 1774 method.",
      "reversible": false
    },
    {
      "id": "Mn-laboratory-001",
      "name": "Permanganate titration of iron(II)",
      "equation": "MnO4-(aq) + 5 Fe2+(aq) + 8 H+(aq) -> Mn2+(aq) + 5 Fe3+(aq) + 4 H2O(l)",
      "type": "redox titration",
      "category": "laboratory",
      "delta_h_kj": null,
      "conditions": "self-indicating; purple MnO4- decolorizes until endpoint",
      "description": "Classic redox titration. MnO4- is its own indicator (purple to colorless).",
      "reversible": false
    },
    {
      "id": "Mn-notable-001",
      "name": "Briggs-Rauscher oscillating reaction",
      "equation": "IO3-(aq) + 2 H2O2(aq) + CH2(COOH)2(aq) + H+(aq) -> ICH(COOH)2(aq) + 2 O2(g) + 3 H2O(l)",
      "type": "oscillating",
      "category": "notable",
      "delta_h_kj": null,
      "conditions": "MnSO4; oscillates amber -> blue -> colorless for ~10 cycles",
      "description": "Chemical oscillator. Color cycles amber -> blue -> colorless repeatedly. Non-equilibrium thermodynamics.",
      "reversible": false
    }
  ]
}
