{
  "name": "Iron",
  "symbol": "Fe",
  "atomic_number": 26,
  "atomic_mass_u": 55.845,
  "atomic_mass_uncertainty_u": 0.002,
  "classification": {
    "group": 8,
    "period": 4,
    "block": "d",
    "category": "transition metal",
    "series": "transition metal",
    "natural_occurrence": "primordial"
  },
  "atomic_structure": {
    "electron_configuration": "[Ar] 3d6 4s2",
    "electron_configuration_long": "1s2 2s2 2p6 3s2 3p6 3d6 4s2",
    "electron_shells": [
      2,
      8,
      14,
      2
    ],
    "valence_electrons": 8,
    "oxidation_states": [
      -4,
      -2,
      -1,
      1,
      2,
      3,
      4,
      5,
      6,
      7
    ],
    "common_oxidation_states": [
      2,
      3
    ],
    "electronegativity_pauling": 1.83,
    "ionization_energies_kj_mol": [
      762.5
    ],
    "electron_affinity_kj_mol": 14.785,
    "atomic_radius_pm": 156,
    "covalent_radius_pm": 132,
    "van_der_waals_radius_pm": null
  },
  "physical_properties": {
    "phase_at_stp": "solid",
    "melting_point_k": 1811.0,
    "boiling_point_k": 3134.0,
    "density_kg_m3": 7874.0,
    "density_liquid_kg_m3": null,
    "triple_point_k": null,
    "triple_point_kpa": null,
    "critical_point_k": null,
    "critical_point_mpa": null,
    "heat_of_fusion_kj_mol": 13.81,
    "heat_of_vaporization_kj_mol": 340.0,
    "molar_heat_capacity_j_mol_k": 25.1,
    "color": "lustrous grey",
    "crystal_structure": "body-centered cubic",
    "magnetic_ordering": "ferromagnetic",
    "speed_of_sound_m_s": 5120,
    "thermal_conductivity_w_m_k": 80.4,
    "thermal_expansion_per_k": 1.18e-05,
    "mohs_hardness": 4.0,
    "bulk_modulus_gpa": 170,
    "shear_modulus_gpa": 82,
    "young_modulus_gpa": 211,
    "poisson_ratio": 0.29
  },
  "nuclear_properties": {
    "radioactive": false,
    "half_life": null,
    "decay_mode": null,
    "stable_isotopes": [
      54,
      56,
      57,
      58
    ],
    "isotopes": [
      {
        "mass_number": 54,
        "symbol": "54Fe",
        "name": null,
        "neutrons": 28,
        "abundance_percent": 5.845,
        "mass_u": 53.939611,
        "half_life": "stable",
        "decay_mode": null,
        "spin": "0+"
      },
      {
        "mass_number": 56,
        "symbol": "56Fe",
        "name": null,
        "neutrons": 30,
        "abundance_percent": 91.754,
        "mass_u": 55.934938,
        "half_life": "stable",
        "decay_mode": null,
        "spin": "0+"
      },
      {
        "mass_number": 57,
        "symbol": "57Fe",
        "name": null,
        "neutrons": 31,
        "abundance_percent": 2.119,
        "mass_u": 56.935394,
        "half_life": "stable",
        "decay_mode": null,
        "spin": "1/2-"
      },
      {
        "mass_number": 58,
        "symbol": "58Fe",
        "name": null,
        "neutrons": 32,
        "abundance_percent": 0.282,
        "mass_u": 57.933276,
        "half_life": "stable",
        "decay_mode": null,
        "spin": "0+"
      }
    ]
  },
  "abundance": {
    "universe_percent": 0.11,
    "solar_percent": 0.11,
    "earth_crust_ppm": 56300,
    "ocean_ppm": 0.002,
    "human_body_percent": 0.006
  },
  "discovery": {
    "year": null,
    "discoverers": [
      "Known since antiquity"
    ],
    "country": null,
    "named_by": null,
    "name_origin": "Anglo-Saxon 'iron' / Latin 'ferrum'"
  },
  "applications": [
    "Steel production (construction, automotive)",
    "Cast iron (cookware, pipes)",
    "Wrought iron",
    "Magnets (iron-core electromagnets)",
    "Catalysts (Haber process)",
    "Hemoglobin (biological oxygen transport)",
    "Pigments (iron oxide)"
  ],
  "hazards": {
    "ghs_pictograms": [],
    "signal_word": null,
    "nfpa_704": {
      "health": 0,
      "flammability": 1,
      "reactivity": 0,
      "special": ""
    },
    "hazard_statements": [],
    "autoignition_temp_k": null,
    "flash_point_k": null,
    "explosive_limits_percent": null
  },
  "reactions": [
    {
      "id": "Fe-biological-001",
      "name": "Hemoglobin oxygen binding",
      "equation": "Hb(aq) + 4 O2(g) <=> Hb(O2)4(aq)",
      "type": "binding",
      "category": "biological",
      "delta_h_kj": -67,
      "conditions": "cooperative binding (sigmoidal curve); Fe2+ in heme porphyrin; P50 = 26 mmHg",
      "description": "Cooperative O2 binding to hemoglobin's four heme groups. Fe2+ does NOT oxidize to Fe3+.",
      "reversible": true
    },
    {
      "id": "Fe-biological-002",
      "name": "Cytochrome c oxidase (Complex IV)",
      "equation": "4 cytochrome c (Fe2+) + O2 + 8 H+(matrix) -> 4 cytochrome c (Fe3+) + 2 H2O + 4 H+(IMS)",
      "type": "electron transfer",
      "category": "biological",
      "delta_h_kj": null,
      "conditions": "inner mitochondrial membrane; contains CuA, CuB, heme a, heme a3",
      "description": "Terminal oxidase of electron transport chain. Reduces O2 to H2O. Pumps 4 H+ per O2.",
      "reversible": false
    },
    {
      "id": "N-biological-001",
      "name": "Biological nitrogen fixation",
      "equation": "N2(g) + 8 H+(aq) + 8 e- + 16 ATP(aq) -> 2 NH3(aq) + H2(g) + 16 ADP(aq) + 16 Pi(aq)",
      "type": "nitrogen fixation",
      "category": "biological",
      "delta_h_kj": null,
      "conditions": "nitrogenase (Fe-Mo cofactor); obligate anaerobic conditions for enzyme; Rhizobium in legume root nodules",
      "description": "Nitrogenase reduces N2 to NH3 at ambient conditions. Requires 16 ATP per N2. FeMo cofactor active site.",
      "reversible": false
    },
    {
      "id": "Fe-environmental-001",
      "name": "Iron rusting",
      "equation": "4 Fe(s) + 3 O2(g) + 6 H2O(l) -> 4 Fe(OH)3(s)",
      "type": "corrosion",
      "category": "environmental",
      "delta_h_kj": -1648,
      "conditions": "electrochemical process; accelerated by salt, acid, scratches in protective coating",
      "description": "Iron corrosion is an electrochemical process. Costs ~3.4% of global GDP annually.",
      "reversible": false
    },
    {
      "id": "Fe-environmental-002",
      "name": "Rust dehydration",
      "equation": "2 Fe(OH)3(s) -> Fe2O3 * H2O(s) + 2 H2O(l)",
      "type": "dehydration",
      "category": "environmental",
      "delta_h_kj": null,
      "conditions": "ambient conditions; Fe(OH)3 dehydrates to reddish-brown rust",
      "description": "Hydrated iron(III) oxide (rust). Flaky, non-protective. Unlike Al2O3, does not passivate.",
      "reversible": false
    },
    {
      "id": "Fe-industrial-001",
      "name": "Blast furnace iron smelting (overall)",
      "equation": "Fe2O3(s) + 3 CO(g) -> 2 Fe(l) + 3 CO2(g)",
      "type": "reduction",
      "category": "industrial",
      "delta_h_kj": -24.8,
      "conditions": "1773 K; blast furnace with coke as reductant",
      "description": "Primary iron ore reduction. CO generated in situ from coke + hot air.",
      "reversible": false
    },
    {
      "id": "Fe-industrial-003",
      "name": "Basic oxygen steelmaking",
      "equation": "2 C(s) + O2(g) -> 2 CO(g)",
      "type": "oxidation",
      "category": "industrial",
      "delta_h_kj": -221,
      "conditions": "1923 K; pure O2 blown into molten pig iron; removes excess C as CO",
      "description": "Basic oxygen furnace (BOF) converts pig iron to steel by blowing O2. ~70% of world steel.",
      "reversible": false
    },
    {
      "id": "Cr-laboratory-001",
      "name": "Dichromate titration of iron(II)",
      "equation": "Cr2O7 2-(aq) + 6 Fe2+(aq) + 14 H+(aq) -> 2 Cr3+(aq) + 6 Fe3+(aq) + 7 H2O(l)",
      "type": "redox titration",
      "category": "laboratory",
      "delta_h_kj": null,
      "conditions": "diphenylamine or ferroin indicator",
      "description": "Dichromate is a primary standard (unlike permanganate). Orange to green color change.",
      "reversible": false
    },
    {
      "id": "Fe-laboratory-001",
      "name": "Iron(III) thiocyanate test",
      "equation": "Fe3+(aq) + 3 SCN-(aq) -> Fe(SCN)3(aq)",
      "type": "complexation",
      "category": "laboratory",
      "delta_h_kj": null,
      "conditions": null,
      "description": "Blood-red color confirms Fe3+ ions. Very sensitive test. Used in equilibrium demonstrations.",
      "reversible": false
    },
    {
      "id": "Fe-laboratory-002",
      "name": "Prussian blue formation",
      "equation": "4 Fe3+(aq) + 3 [Fe(CN)6]4-(aq) -> Fe4[Fe(CN)6]3(s)",
      "type": "precipitation",
      "category": "laboratory",
      "delta_h_kj": null,
      "conditions": null,
      "description": "Prussian blue: intense blue pigment. Historic iron detection test. Also used in art.",
      "reversible": false
    },
    {
      "id": "Mn-laboratory-001",
      "name": "Permanganate titration of iron(II)",
      "equation": "MnO4-(aq) + 5 Fe2+(aq) + 8 H+(aq) -> Mn2+(aq) + 5 Fe3+(aq) + 4 H2O(l)",
      "type": "redox titration",
      "category": "laboratory",
      "delta_h_kj": null,
      "conditions": "self-indicating; purple MnO4- decolorizes until endpoint",
      "description": "Classic redox titration. MnO4- is its own indicator (purple to colorless).",
      "reversible": false
    },
    {
      "id": "Cu-notable-001",
      "name": "Copper sulfate + iron (tree of Diana)",
      "equation": "Fe(s) + CuSO4(aq) -> FeSO4(aq) + Cu(s)",
      "type": "single displacement",
      "category": "notable",
      "delta_h_kj": -153,
      "conditions": "iron nail in CuSO4 solution; copper plates out as reddish deposit",
      "description": "Iron displaces copper from solution. Classic activity series demonstration. Reddish copper deposits on iron.",
      "reversible": false
    },
    {
      "id": "Fe-notable-001",
      "name": "Thermite reaction",
      "equation": "2 Al(s) + Fe2O3(s) -> Al2O3(s) + 2 Fe(l)",
      "type": "aluminothermic",
      "category": "notable",
      "delta_h_kj": -851.5,
      "conditions": "ignited with Mg ribbon; reaches ~2500C; used for rail welding",
      "description": "Extremely exothermic aluminothermic reaction. Produces molten iron at >2500C. Used to weld railroad rails.",
      "reversible": false
    }
  ]
}
