{
  "name": "Nickel",
  "symbol": "Ni",
  "atomic_number": 28,
  "atomic_mass_u": 58.693,
  "atomic_mass_uncertainty_u": 0.002,
  "classification": {
    "group": 10,
    "period": 4,
    "block": "d",
    "category": "transition metal",
    "series": "transition metal",
    "natural_occurrence": "primordial"
  },
  "atomic_structure": {
    "electron_configuration": "[Ar] 3d8 4s2",
    "electron_configuration_long": "1s2 2s2 2p6 3s2 3p6 3d8 4s2",
    "electron_shells": [
      2,
      8,
      16,
      2
    ],
    "valence_electrons": 10,
    "oxidation_states": [
      -2,
      -1,
      1,
      2,
      3,
      4
    ],
    "common_oxidation_states": [
      2
    ],
    "electronegativity_pauling": 1.91,
    "ionization_energies_kj_mol": [
      737.1
    ],
    "electron_affinity_kj_mol": 111.65,
    "atomic_radius_pm": 149,
    "covalent_radius_pm": 124,
    "van_der_waals_radius_pm": 163
  },
  "physical_properties": {
    "phase_at_stp": "solid",
    "melting_point_k": 1728.0,
    "boiling_point_k": 3003.0,
    "density_kg_m3": 8908.0,
    "density_liquid_kg_m3": null,
    "triple_point_k": null,
    "triple_point_kpa": null,
    "critical_point_k": null,
    "critical_point_mpa": null,
    "heat_of_fusion_kj_mol": 17.48,
    "heat_of_vaporization_kj_mol": 377.5,
    "molar_heat_capacity_j_mol_k": 26.07,
    "color": "lustrous grey-white",
    "crystal_structure": "face-centered cubic",
    "magnetic_ordering": "ferromagnetic",
    "speed_of_sound_m_s": 4970,
    "thermal_conductivity_w_m_k": 90.9,
    "thermal_expansion_per_k": 1.34e-05,
    "mohs_hardness": 4.0,
    "bulk_modulus_gpa": 180,
    "shear_modulus_gpa": 76,
    "young_modulus_gpa": 200,
    "poisson_ratio": 0.31
  },
  "nuclear_properties": {
    "radioactive": false,
    "half_life": null,
    "decay_mode": null,
    "stable_isotopes": [
      58,
      60,
      61,
      62,
      64
    ],
    "isotopes": [
      {
        "mass_number": 59,
        "symbol": "59Ni",
        "name": null,
        "neutrons": 31,
        "abundance_percent": null,
        "mass_u": 58.693,
        "half_life": "stable",
        "decay_mode": null,
        "spin": null
      }
    ]
  },
  "abundance": {
    "universe_percent": 0.006,
    "solar_percent": 0.006,
    "earth_crust_ppm": 84,
    "ocean_ppm": 0.00056,
    "human_body_percent": 1e-05
  },
  "discovery": {
    "year": 1751,
    "discoverers": [
      "Axel Fredrik Cronstedt"
    ],
    "country": "Sweden",
    "named_by": null,
    "name_origin": "German 'kupfernickel' (false copper)"
  },
  "applications": [
    "Stainless steel alloys",
    "Nickel plating",
    "Coins (nickel alloys)",
    "Batteries (NiMH, NiCd)",
    "Superalloys (jet engines)",
    "Catalysts (hydrogenation)",
    "Magnets (Alnico)"
  ],
  "hazards": {
    "ghs_pictograms": [
      "GHS08"
    ],
    "signal_word": "Danger",
    "nfpa_704": null,
    "hazard_statements": [],
    "autoignition_temp_k": null,
    "flash_point_k": null,
    "explosive_limits_percent": null
  },
  "reactions": [
    {
      "id": "N-biological-002",
      "name": "Urease catalysis",
      "equation": "NH2CONH2(aq) + H2O(l) -> 2 NH3(aq) + CO2(g)",
      "type": "enzyme catalysis",
      "category": "biological",
      "delta_h_kj": -40,
      "conditions": "urease (Ni2+ active site); rate enhancement: 10^14 over uncatalyzed",
      "description": "Urease was the first enzyme crystallized (Sumner, 1926). Contains dinuclear Ni center.",
      "reversible": false
    },
    {
      "id": "Ni-industrial-001",
      "name": "Mond process (nickel purification)",
      "equation": "Ni(s) + 4 CO(g) <=> Ni(CO)4(g)",
      "type": "carbonyl formation",
      "category": "industrial",
      "delta_h_kj": -160,
      "conditions": "323 K; Ni(CO)4 decomposes at 230C to deposit pure Ni; extremely toxic gas",
      "description": "Mond process: volatile Ni(CO)4 formed at 50C, decomposed at 230C for 99.99% pure Ni.",
      "reversible": true
    }
  ]
}
