{
  "name": "Copper",
  "symbol": "Cu",
  "atomic_number": 29,
  "atomic_mass_u": 63.546,
  "atomic_mass_uncertainty_u": 0.003,
  "classification": {
    "group": 11,
    "period": 4,
    "block": "d",
    "category": "transition metal",
    "series": "transition metal",
    "natural_occurrence": "primordial"
  },
  "atomic_structure": {
    "electron_configuration": "[Ar] 3d10 4s1",
    "electron_configuration_long": "1s2 2s2 2p6 3s2 3p6 3d10 4s1",
    "electron_shells": [
      2,
      8,
      18,
      1
    ],
    "valence_electrons": 11,
    "oxidation_states": [
      1,
      2,
      3,
      4
    ],
    "common_oxidation_states": [
      1,
      2
    ],
    "electronegativity_pauling": 1.9,
    "ionization_energies_kj_mol": [
      745.5
    ],
    "electron_affinity_kj_mol": 119.235,
    "atomic_radius_pm": 145,
    "covalent_radius_pm": 132,
    "van_der_waals_radius_pm": 140
  },
  "physical_properties": {
    "phase_at_stp": "solid",
    "melting_point_k": 1357.77,
    "boiling_point_k": 2835.0,
    "density_kg_m3": 8960.0,
    "density_liquid_kg_m3": 8020.0,
    "triple_point_k": null,
    "triple_point_kpa": null,
    "critical_point_k": null,
    "critical_point_mpa": null,
    "heat_of_fusion_kj_mol": 13.26,
    "heat_of_vaporization_kj_mol": 300.4,
    "molar_heat_capacity_j_mol_k": 24.44,
    "color": "copper-red",
    "crystal_structure": "face-centered cubic",
    "magnetic_ordering": "diamagnetic",
    "speed_of_sound_m_s": 3570,
    "thermal_conductivity_w_m_k": 401.0,
    "thermal_expansion_per_k": 1.65e-05,
    "mohs_hardness": 3.0,
    "bulk_modulus_gpa": 140,
    "shear_modulus_gpa": 48,
    "young_modulus_gpa": 130,
    "poisson_ratio": 0.34
  },
  "nuclear_properties": {
    "radioactive": false,
    "half_life": null,
    "decay_mode": null,
    "stable_isotopes": [
      63,
      65
    ],
    "isotopes": [
      {
        "mass_number": 63,
        "symbol": "63Cu",
        "name": null,
        "neutrons": 34,
        "abundance_percent": 69.17,
        "mass_u": 62.929598,
        "half_life": "stable",
        "decay_mode": null,
        "spin": "3/2-"
      },
      {
        "mass_number": 65,
        "symbol": "65Cu",
        "name": null,
        "neutrons": 36,
        "abundance_percent": 30.83,
        "mass_u": 64.92779,
        "half_life": "stable",
        "decay_mode": null,
        "spin": "3/2-"
      }
    ]
  },
  "abundance": {
    "universe_percent": 6e-06,
    "solar_percent": 6e-06,
    "earth_crust_ppm": 60,
    "ocean_ppm": 0.00025,
    "human_body_percent": 0.0001
  },
  "discovery": {
    "year": null,
    "discoverers": [
      "Known since antiquity"
    ],
    "country": null,
    "named_by": null,
    "name_origin": "Latin 'cuprum' (from Cyprus)"
  },
  "applications": [
    "Electrical wiring and cables",
    "Plumbing pipes",
    "Electronics (PCB traces)",
    "Coinage",
    "Roofing and architecture",
    "Antimicrobial surfaces",
    "Brass and bronze alloys",
    "Heat exchangers"
  ],
  "hazards": {
    "ghs_pictograms": [],
    "signal_word": null,
    "nfpa_704": {
      "health": 0,
      "flammability": 0,
      "reactivity": 0,
      "special": ""
    },
    "hazard_statements": [],
    "autoignition_temp_k": null,
    "flash_point_k": null,
    "explosive_limits_percent": null
  },
  "reactions": [
    {
      "id": "Fe-biological-002",
      "name": "Cytochrome c oxidase (Complex IV)",
      "equation": "4 cytochrome c (Fe2+) + O2 + 8 H+(matrix) -> 4 cytochrome c (Fe3+) + 2 H2O + 4 H+(IMS)",
      "type": "electron transfer",
      "category": "biological",
      "delta_h_kj": null,
      "conditions": "inner mitochondrial membrane; contains CuA, CuB, heme a, heme a3",
      "description": "Terminal oxidase of electron transport chain. Reduces O2 to H2O. Pumps 4 H+ per O2.",
      "reversible": false
    },
    {
      "id": "Cu-industrial-001",
      "name": "Copper matte smelting",
      "equation": "2 Cu2S(s) + 3 O2(g) -> 2 Cu2O(s) + 2 SO2(g)",
      "type": "roasting",
      "category": "industrial",
      "delta_h_kj": -773,
      "conditions": "1473 K",
      "description": "Partial roasting of copper matte in converting furnace.",
      "reversible": false
    },
    {
      "id": "Cu-industrial-002",
      "name": "Copper blister formation",
      "equation": "Cu2S(s) + 2 Cu2O(s) -> 6 Cu(l) + SO2(g)",
      "type": "reduction",
      "category": "industrial",
      "delta_h_kj": null,
      "conditions": "1473 K",
      "description": "Self-reduction of Cu2S by Cu2O to produce blister copper (~99% Cu).",
      "reversible": false
    },
    {
      "id": "Cu-industrial-003",
      "name": "Copper electrorefining",
      "equation": "Cu(s, impure) -> Cu(s, pure)",
      "type": "electrolysis",
      "category": "industrial",
      "delta_h_kj": null,
      "conditions": "electrolysis in CuSO4/H2SO4; impure Cu anode, pure Cu cathode; ~0.3V",
      "description": "Electrorefining produces 99.99% pure copper. Precious metals recovered from anode slime.",
      "reversible": false
    },
    {
      "id": "C-laboratory-008",
      "name": "Fehling's test (reducing sugars)",
      "equation": "RCHO(aq) + 2 Cu2+(aq) + 5 OH-(aq) -> RCOO-(aq) + Cu2O(s) + 3 H2O(l)",
      "type": "oxidation",
      "category": "laboratory",
      "delta_h_kj": null,
      "conditions": "heat to boiling; blue Cu2+ to brick-red Cu2O precipitate",
      "description": "Brick-red Cu2O precipitate indicates reducing sugar or aldehyde. Blue to red color change.",
      "reversible": false
    },
    {
      "id": "Cu-laboratory-001",
      "name": "Copper electroplating",
      "equation": "Cu2+(aq) + 2 e- -> Cu(s)",
      "type": "electrolysis",
      "category": "laboratory",
      "delta_h_kj": null,
      "conditions": "CuSO4 electrolyte; object as cathode; Cu anode; ~0.5 A/dm2",
      "description": "Electrodeposition of copper. Common introductory electrochemistry experiment.",
      "reversible": false
    },
    {
      "id": "Cu-laboratory-002",
      "name": "Copper(II) ammonia complex (deep blue)",
      "equation": "Cu2+(aq) + 4 NH3(aq) -> [Cu(NH3)4]2+(aq)",
      "type": "complexation",
      "category": "laboratory",
      "delta_h_kj": null,
      "conditions": "add excess ammonia to Cu2+ solution",
      "description": "Tetraamminecopper(II) complex. Deep royal blue color. Confirms Cu2+ presence.",
      "reversible": false
    },
    {
      "id": "Zn-laboratory-001",
      "name": "Daniell cell",
      "equation": "Zn(s) + Cu2+(aq) -> Zn2+(aq) + Cu(s)",
      "type": "galvanic cell",
      "category": "laboratory",
      "delta_h_kj": -212.6,
      "conditions": "E_cell = +1.10 V; salt bridge required",
      "description": "Classic galvanic cell. Zn anode oxidizes, Cu2+ deposits at cathode. E = 1.10V.",
      "reversible": false
    },
    {
      "id": "Cu-notable-001",
      "name": "Copper sulfate + iron (tree of Diana)",
      "equation": "Fe(s) + CuSO4(aq) -> FeSO4(aq) + Cu(s)",
      "type": "single displacement",
      "category": "notable",
      "delta_h_kj": -153,
      "conditions": "iron nail in CuSO4 solution; copper plates out as reddish deposit",
      "description": "Iron displaces copper from solution. Classic activity series demonstration. Reddish copper deposits on iron.",
      "reversible": false
    }
  ]
}
