{
  "name": "Zinc",
  "symbol": "Zn",
  "atomic_number": 30,
  "atomic_mass_u": 65.38,
  "atomic_mass_uncertainty_u": 0.02,
  "classification": {
    "group": 12,
    "period": 4,
    "block": "d",
    "category": "post-transition metal",
    "series": "poor metal",
    "natural_occurrence": "primordial"
  },
  "atomic_structure": {
    "electron_configuration": "[Ar] 3d10 4s2",
    "electron_configuration_long": "1s2 2s2 2p6 3s2 3p6 3d10 4s2",
    "electron_shells": [
      2,
      8,
      18,
      2
    ],
    "valence_electrons": 2,
    "oxidation_states": [
      -2,
      1,
      2
    ],
    "common_oxidation_states": [
      2
    ],
    "electronegativity_pauling": 1.65,
    "ionization_energies_kj_mol": [
      906.4
    ],
    "electron_affinity_kj_mol": -58.0,
    "atomic_radius_pm": 142,
    "covalent_radius_pm": 122,
    "van_der_waals_radius_pm": 139
  },
  "physical_properties": {
    "phase_at_stp": "solid",
    "melting_point_k": 692.68,
    "boiling_point_k": 1180.0,
    "density_kg_m3": 7134.0,
    "density_liquid_kg_m3": null,
    "triple_point_k": null,
    "triple_point_kpa": null,
    "critical_point_k": null,
    "critical_point_mpa": null,
    "heat_of_fusion_kj_mol": 7.32,
    "heat_of_vaporization_kj_mol": 115.3,
    "molar_heat_capacity_j_mol_k": 25.47,
    "color": "silver-grey",
    "crystal_structure": "hexagonal close-packed",
    "magnetic_ordering": "diamagnetic",
    "speed_of_sound_m_s": 3850,
    "thermal_conductivity_w_m_k": 116.0,
    "thermal_expansion_per_k": 3.02e-05,
    "mohs_hardness": 2.5,
    "bulk_modulus_gpa": 70,
    "shear_modulus_gpa": 43,
    "young_modulus_gpa": 108,
    "poisson_ratio": 0.25
  },
  "nuclear_properties": {
    "radioactive": false,
    "half_life": null,
    "decay_mode": null,
    "stable_isotopes": [
      64,
      66,
      67,
      68,
      70
    ],
    "isotopes": [
      {
        "mass_number": 65,
        "symbol": "65Zn",
        "name": null,
        "neutrons": 35,
        "abundance_percent": null,
        "mass_u": 65.38,
        "half_life": "stable",
        "decay_mode": null,
        "spin": null
      }
    ]
  },
  "abundance": {
    "universe_percent": 3e-05,
    "solar_percent": 3e-05,
    "earth_crust_ppm": 70,
    "ocean_ppm": 0.005,
    "human_body_percent": 0.0033
  },
  "discovery": {
    "year": null,
    "discoverers": [
      "Known since antiquity (India, ~1000 BCE)"
    ],
    "country": null,
    "named_by": null,
    "name_origin": "German 'Zink'"
  },
  "applications": [
    "Galvanizing steel (corrosion protection)",
    "Brass alloys (Cu-Zn)",
    "Batteries (zinc-carbon, zinc-air)",
    "Die casting",
    "Zinc oxide (sunscreen, rubber vulcanization)",
    "Dietary supplement",
    "Sacrificial anodes"
  ],
  "hazards": {
    "ghs_pictograms": [
      "GHS09"
    ],
    "signal_word": "Warning",
    "nfpa_704": null,
    "hazard_statements": [],
    "autoignition_temp_k": null,
    "flash_point_k": null,
    "explosive_limits_percent": null
  },
  "reactions": [
    {
      "id": "Zn-biological-001",
      "name": "Carbonic anhydrase",
      "equation": "CO2(g) + H2O(l) <=> HCO3-(aq) + H+(aq)",
      "type": "enzyme catalysis",
      "category": "biological",
      "delta_h_kj": null,
      "conditions": "carbonic anhydrase (Zn2+ active site); kcat ~10^6 s-1; one of fastest enzymes",
      "description": "Zinc metalloenzyme. Catalyzes CO2 hydration ~10^6 times faster than uncatalyzed. Critical for CO2 transport and pH regulation.",
      "reversible": true
    },
    {
      "id": "Zn-industrial-001",
      "name": "Zinc roasting",
      "equation": "2 ZnS(s) + 3 O2(g) -> 2 ZnO(s) + 2 SO2(g)",
      "type": "roasting",
      "category": "industrial",
      "delta_h_kj": -879,
      "conditions": "1173 K",
      "description": "Roasting sphalerite (ZnS) to zinc oxide for subsequent reduction.",
      "reversible": false
    },
    {
      "id": "Zn-industrial-002",
      "name": "Zinc smelting (carbothermic reduction)",
      "equation": "ZnO(s) + C(s) -> Zn(g) + CO(g)",
      "type": "reduction",
      "category": "industrial",
      "delta_h_kj": 237,
      "conditions": "1373 K; Imperial Smelting Process or retort",
      "description": "Carbothermic reduction of ZnO. Zinc vapor condensed and collected.",
      "reversible": false
    },
    {
      "id": "H-laboratory-004",
      "name": "Hydrogen generation (Zn + HCl)",
      "equation": "Zn(s) + 2 HCl(aq) -> ZnCl2(aq) + H2(g)",
      "type": "single displacement",
      "category": "laboratory",
      "delta_h_kj": -153,
      "conditions": null,
      "description": "Standard lab preparation of hydrogen gas. Collect by downward displacement of water.",
      "reversible": false
    },
    {
      "id": "Zn-laboratory-001",
      "name": "Daniell cell",
      "equation": "Zn(s) + Cu2+(aq) -> Zn2+(aq) + Cu(s)",
      "type": "galvanic cell",
      "category": "laboratory",
      "delta_h_kj": -212.6,
      "conditions": "E_cell = +1.10 V; salt bridge required",
      "description": "Classic galvanic cell. Zn anode oxidizes, Cu2+ deposits at cathode. E = 1.10V.",
      "reversible": false
    }
  ]
}
