{
  "name": "Germanium",
  "symbol": "Ge",
  "atomic_number": 32,
  "atomic_mass_u": 72.63,
  "atomic_mass_uncertainty_u": 0.008,
  "classification": {
    "group": 14,
    "period": 4,
    "block": "p",
    "category": "metalloid",
    "series": "metalloid",
    "natural_occurrence": "primordial"
  },
  "atomic_structure": {
    "electron_configuration": "[Ar] 3d10 4s2 4p2",
    "electron_configuration_long": "1s2 2s2 2p6 3s2 3p6 3d10 4s2 4p2",
    "electron_shells": [
      2,
      8,
      18,
      4
    ],
    "valence_electrons": 4,
    "oxidation_states": [
      -4,
      1,
      2,
      3,
      4
    ],
    "common_oxidation_states": [
      4
    ],
    "electronegativity_pauling": 2.01,
    "ionization_energies_kj_mol": [
      762.2
    ],
    "electron_affinity_kj_mol": 118.935,
    "atomic_radius_pm": 125,
    "covalent_radius_pm": 120,
    "van_der_waals_radius_pm": 211
  },
  "physical_properties": {
    "phase_at_stp": "solid",
    "melting_point_k": 1211.4,
    "boiling_point_k": 3106.0,
    "density_kg_m3": 5323.0,
    "density_liquid_kg_m3": null,
    "triple_point_k": null,
    "triple_point_kpa": null,
    "critical_point_k": null,
    "critical_point_mpa": null,
    "heat_of_fusion_kj_mol": 36.94,
    "heat_of_vaporization_kj_mol": 334.0,
    "molar_heat_capacity_j_mol_k": 23.222,
    "color": "greyish-white",
    "crystal_structure": "diamond cubic",
    "magnetic_ordering": "diamagnetic",
    "speed_of_sound_m_s": 5400,
    "thermal_conductivity_w_m_k": 60.2,
    "thermal_expansion_per_k": 6e-06,
    "mohs_hardness": 6.0,
    "bulk_modulus_gpa": 75,
    "shear_modulus_gpa": null,
    "young_modulus_gpa": 103,
    "poisson_ratio": null
  },
  "nuclear_properties": {
    "radioactive": false,
    "half_life": null,
    "decay_mode": null,
    "stable_isotopes": [
      70,
      72,
      73,
      74
    ],
    "isotopes": [
      {
        "mass_number": 73,
        "symbol": "73Ge",
        "name": null,
        "neutrons": 41,
        "abundance_percent": null,
        "mass_u": 72.63,
        "half_life": "stable",
        "decay_mode": null,
        "spin": null
      }
    ]
  },
  "abundance": {
    "universe_percent": 2e-05,
    "solar_percent": 2e-05,
    "earth_crust_ppm": 1.5,
    "ocean_ppm": 5e-05,
    "human_body_percent": null
  },
  "discovery": {
    "year": 1886,
    "discoverers": [
      "Clemens Winkler"
    ],
    "country": "Germany",
    "named_by": "Clemens Winkler",
    "name_origin": "Latin 'Germania' (Germany)"
  },
  "applications": [
    "Fiber optics",
    "Infrared optics",
    "Semiconductors (SiGe)",
    "Polymerization catalysts",
    "Solar cells"
  ],
  "hazards": {
    "ghs_pictograms": [],
    "signal_word": null,
    "nfpa_704": null,
    "hazard_statements": [],
    "autoignition_temp_k": null,
    "flash_point_k": null,
    "explosive_limits_percent": null
  },
  "reactions": []
}