{
  "name": "Arsenic",
  "symbol": "As",
  "atomic_number": 33,
  "atomic_mass_u": 74.922,
  "atomic_mass_uncertainty_u": 0.001,
  "classification": {
    "group": 15,
    "period": 4,
    "block": "p",
    "category": "metalloid",
    "series": "metalloid",
    "natural_occurrence": "primordial"
  },
  "atomic_structure": {
    "electron_configuration": "[Ar] 3d10 4s2 4p3",
    "electron_configuration_long": "1s2 2s2 2p6 3s2 3p6 3d10 4s2 4p3",
    "electron_shells": [
      2,
      8,
      18,
      5
    ],
    "valence_electrons": 5,
    "oxidation_states": [
      -3,
      2,
      3,
      5
    ],
    "common_oxidation_states": [
      -3,
      3,
      5
    ],
    "electronegativity_pauling": 2.18,
    "ionization_energies_kj_mol": [
      947.0
    ],
    "electron_affinity_kj_mol": 77.65,
    "atomic_radius_pm": 114,
    "covalent_radius_pm": 119,
    "van_der_waals_radius_pm": 185
  },
  "physical_properties": {
    "phase_at_stp": "solid",
    "melting_point_k": 1090.0,
    "boiling_point_k": 887.0,
    "density_kg_m3": 5727.0,
    "density_liquid_kg_m3": null,
    "triple_point_k": null,
    "triple_point_kpa": null,
    "critical_point_k": null,
    "critical_point_mpa": null,
    "heat_of_fusion_kj_mol": 24.44,
    "heat_of_vaporization_kj_mol": 34.76,
    "molar_heat_capacity_j_mol_k": 24.64,
    "color": "metallic grey",
    "crystal_structure": "rhombohedral",
    "magnetic_ordering": "diamagnetic",
    "speed_of_sound_m_s": null,
    "thermal_conductivity_w_m_k": 50.2,
    "thermal_expansion_per_k": null,
    "mohs_hardness": 3.5,
    "bulk_modulus_gpa": null,
    "shear_modulus_gpa": null,
    "young_modulus_gpa": null,
    "poisson_ratio": null
  },
  "nuclear_properties": {
    "radioactive": false,
    "half_life": null,
    "decay_mode": null,
    "stable_isotopes": [
      75
    ],
    "isotopes": [
      {
        "mass_number": 75,
        "symbol": "75As",
        "name": null,
        "neutrons": 42,
        "abundance_percent": 100.0,
        "mass_u": 74.922,
        "half_life": "stable",
        "decay_mode": null,
        "spin": null
      }
    ]
  },
  "abundance": {
    "universe_percent": null,
    "solar_percent": null,
    "earth_crust_ppm": 1.8,
    "ocean_ppm": null,
    "human_body_percent": 2.6e-05
  },
  "discovery": {
    "year": null,
    "discoverers": [
      "Known since antiquity (Albertus Magnus, ~1250)"
    ],
    "country": null,
    "named_by": null,
    "name_origin": "Greek 'arsenikon' (yellow orpiment)"
  },
  "applications": [
    "Semiconductors (GaAs)",
    "Wood preservatives (historical)",
    "Pesticides (historical)",
    "Lead-acid battery alloys"
  ],
  "hazards": {
    "ghs_pictograms": [
      "GHS06",
      "GHS09"
    ],
    "signal_word": "Danger",
    "nfpa_704": null,
    "hazard_statements": [],
    "autoignition_temp_k": null,
    "flash_point_k": null,
    "explosive_limits_percent": null
  },
  "reactions": []
}