{
  "name": "Selenium",
  "symbol": "Se",
  "atomic_number": 34,
  "atomic_mass_u": 78.971,
  "atomic_mass_uncertainty_u": 0.004,
  "classification": {
    "group": 16,
    "period": 4,
    "block": "p",
    "category": "reactive nonmetal",
    "series": "nonmetal",
    "natural_occurrence": "primordial"
  },
  "atomic_structure": {
    "electron_configuration": "[Ar] 3d10 4s2 4p4",
    "electron_configuration_long": "1s2 2s2 2p6 3s2 3p6 3d10 4s2 4p4",
    "electron_shells": [
      2,
      8,
      18,
      6
    ],
    "valence_electrons": 6,
    "oxidation_states": [
      -2,
      1,
      2,
      4,
      6
    ],
    "common_oxidation_states": [
      -2,
      4,
      6
    ],
    "electronegativity_pauling": 2.55,
    "ionization_energies_kj_mol": [
      941.0
    ],
    "electron_affinity_kj_mol": 194.959,
    "atomic_radius_pm": 103,
    "covalent_radius_pm": 120,
    "van_der_waals_radius_pm": 190
  },
  "physical_properties": {
    "phase_at_stp": "solid",
    "melting_point_k": 494.0,
    "boiling_point_k": 958.0,
    "density_kg_m3": 4810.0,
    "density_liquid_kg_m3": null,
    "triple_point_k": null,
    "triple_point_kpa": null,
    "critical_point_k": null,
    "critical_point_mpa": null,
    "heat_of_fusion_kj_mol": 6.69,
    "heat_of_vaporization_kj_mol": 95.48,
    "molar_heat_capacity_j_mol_k": 25.363,
    "color": "grey (crystalline), red (amorphous)",
    "crystal_structure": "hexagonal",
    "magnetic_ordering": "diamagnetic",
    "speed_of_sound_m_s": 3350,
    "thermal_conductivity_w_m_k": 0.52,
    "thermal_expansion_per_k": null,
    "mohs_hardness": null,
    "bulk_modulus_gpa": null,
    "shear_modulus_gpa": null,
    "young_modulus_gpa": null,
    "poisson_ratio": null
  },
  "nuclear_properties": {
    "radioactive": false,
    "half_life": null,
    "decay_mode": null,
    "stable_isotopes": [
      74,
      76,
      77,
      78,
      80
    ],
    "isotopes": [
      {
        "mass_number": 79,
        "symbol": "79Se",
        "name": null,
        "neutrons": 45,
        "abundance_percent": null,
        "mass_u": 78.971,
        "half_life": "stable",
        "decay_mode": null,
        "spin": null
      }
    ]
  },
  "abundance": {
    "universe_percent": null,
    "solar_percent": null,
    "earth_crust_ppm": 0.05,
    "ocean_ppm": null,
    "human_body_percent": 5e-06
  },
  "discovery": {
    "year": 1817,
    "discoverers": [
      "Jons Jacob Berzelius"
    ],
    "country": "Sweden",
    "named_by": "Jons Jacob Berzelius",
    "name_origin": "Greek 'selene' (moon)"
  },
  "applications": [
    "Photocells",
    "Xerography (photocopiers)",
    "Glass coloring (red)",
    "Semiconductors",
    "Dietary supplement"
  ],
  "hazards": {
    "ghs_pictograms": [
      "GHS06",
      "GHS08"
    ],
    "signal_word": "Danger",
    "nfpa_704": null,
    "hazard_statements": [],
    "autoignition_temp_k": null,
    "flash_point_k": null,
    "explosive_limits_percent": null
  },
  "reactions": []
}