{
  "name": "Krypton",
  "symbol": "Kr",
  "atomic_number": 36,
  "atomic_mass_u": 83.798,
  "atomic_mass_uncertainty_u": 0.002,
  "classification": {
    "group": 18,
    "period": 4,
    "block": "p",
    "category": "noble gas",
    "series": "noble gas",
    "natural_occurrence": "primordial"
  },
  "atomic_structure": {
    "electron_configuration": "[Ar] 3d10 4s2 4p6",
    "electron_configuration_long": "1s2 2s2 2p6 3s2 3p6 3d10 4s2 4p6",
    "electron_shells": [
      2,
      8,
      18,
      8
    ],
    "valence_electrons": 8,
    "oxidation_states": [
      0,
      2
    ],
    "common_oxidation_states": [
      0
    ],
    "electronegativity_pauling": 3.0,
    "ionization_energies_kj_mol": [
      1350.8
    ],
    "electron_affinity_kj_mol": -96.0,
    "atomic_radius_pm": 88,
    "covalent_radius_pm": 116,
    "van_der_waals_radius_pm": 202
  },
  "physical_properties": {
    "phase_at_stp": "gas",
    "melting_point_k": 115.78,
    "boiling_point_k": 119.93,
    "density_kg_m3": 3.749,
    "density_liquid_kg_m3": 2413.0,
    "triple_point_k": 115.775,
    "triple_point_kpa": 73.53,
    "critical_point_k": 209.48,
    "critical_point_mpa": 5.525,
    "heat_of_fusion_kj_mol": 1.64,
    "heat_of_vaporization_kj_mol": 9.08,
    "molar_heat_capacity_j_mol_k": 20.786,
    "color": "colorless",
    "crystal_structure": "face-centered cubic",
    "magnetic_ordering": "diamagnetic",
    "speed_of_sound_m_s": null,
    "thermal_conductivity_w_m_k": 0.00943,
    "thermal_expansion_per_k": null,
    "mohs_hardness": null,
    "bulk_modulus_gpa": null,
    "shear_modulus_gpa": null,
    "young_modulus_gpa": null,
    "poisson_ratio": null
  },
  "nuclear_properties": {
    "radioactive": false,
    "half_life": null,
    "decay_mode": null,
    "stable_isotopes": [
      78,
      80,
      82,
      83,
      84,
      86
    ],
    "isotopes": [
      {
        "mass_number": 84,
        "symbol": "84Kr",
        "name": null,
        "neutrons": 48,
        "abundance_percent": null,
        "mass_u": 83.798,
        "half_life": "stable",
        "decay_mode": null,
        "spin": null
      }
    ]
  },
  "abundance": {
    "universe_percent": null,
    "solar_percent": null,
    "earth_crust_ppm": 0.0001,
    "ocean_ppm": null,
    "human_body_percent": null
  },
  "discovery": {
    "year": 1898,
    "discoverers": [
      "William Ramsay",
      "Morris Travers"
    ],
    "country": "England",
    "named_by": "William Ramsay",
    "name_origin": "Greek 'kryptos' (hidden)"
  },
  "applications": [
    "Flash photography",
    "Fluorescent lighting",
    "Insulation (double-pane windows)",
    "Krypton-fluoride lasers"
  ],
  "hazards": {
    "ghs_pictograms": [],
    "signal_word": null,
    "nfpa_704": null,
    "hazard_statements": [],
    "autoignition_temp_k": null,
    "flash_point_k": null,
    "explosive_limits_percent": null
  },
  "reactions": [
    {
      "id": "U-notable-001",
      "name": "Uranium-235 nuclear fission",
      "equation": "U-235 + n -> Ba-141 + Kr-92 + 3 n",
      "type": "nuclear fission",
      "category": "notable",
      "delta_h_kj": null,
      "conditions": "thermal neutron capture; ~200 MeV per fission; chain reaction if k >= 1",
      "description": "Nuclear fission of U-235. ~200 MeV per event. Powers nuclear reactors and weapons. Discovered 1938 by Hahn & Strassmann.",
      "reversible": false
    }
  ]
}
