{
  "name": "Yttrium",
  "symbol": "Y",
  "atomic_number": 39,
  "atomic_mass_u": 88.906,
  "atomic_mass_uncertainty_u": 0.001,
  "classification": {
    "group": 3,
    "period": 5,
    "block": "d",
    "category": "transition metal",
    "series": "transition metal",
    "natural_occurrence": "primordial"
  },
  "atomic_structure": {
    "electron_configuration": "[Kr] 4d1 5s2",
    "electron_configuration_long": "1s2 2s2 2p6 3s2 3p6 3d10 4s2 4p6 4d1 5s2",
    "electron_shells": [
      2,
      8,
      18,
      9,
      2
    ],
    "valence_electrons": 3,
    "oxidation_states": [
      1,
      2,
      3
    ],
    "common_oxidation_states": [
      3
    ],
    "electronegativity_pauling": 1.22,
    "ionization_energies_kj_mol": [
      600.0
    ],
    "electron_affinity_kj_mol": 29.6,
    "atomic_radius_pm": 212,
    "covalent_radius_pm": 190,
    "van_der_waals_radius_pm": null
  },
  "physical_properties": {
    "phase_at_stp": "solid",
    "melting_point_k": 1799.0,
    "boiling_point_k": 3203.0,
    "density_kg_m3": 4472.0,
    "density_liquid_kg_m3": null,
    "triple_point_k": null,
    "triple_point_kpa": null,
    "critical_point_k": null,
    "critical_point_mpa": null,
    "heat_of_fusion_kj_mol": 11.42,
    "heat_of_vaporization_kj_mol": 365.0,
    "molar_heat_capacity_j_mol_k": 26.53,
    "color": "silvery-white",
    "crystal_structure": "hexagonal close-packed",
    "magnetic_ordering": "paramagnetic",
    "speed_of_sound_m_s": null,
    "thermal_conductivity_w_m_k": 17.2,
    "thermal_expansion_per_k": null,
    "mohs_hardness": null,
    "bulk_modulus_gpa": null,
    "shear_modulus_gpa": null,
    "young_modulus_gpa": null,
    "poisson_ratio": null
  },
  "nuclear_properties": {
    "radioactive": false,
    "half_life": null,
    "decay_mode": null,
    "stable_isotopes": [
      89
    ],
    "isotopes": [
      {
        "mass_number": 89,
        "symbol": "89Y",
        "name": null,
        "neutrons": 50,
        "abundance_percent": 100.0,
        "mass_u": 88.906,
        "half_life": "stable",
        "decay_mode": null,
        "spin": null
      }
    ]
  },
  "abundance": {
    "universe_percent": null,
    "solar_percent": null,
    "earth_crust_ppm": 33,
    "ocean_ppm": null,
    "human_body_percent": null
  },
  "discovery": {
    "year": 1794,
    "discoverers": [
      "Johan Gadolin"
    ],
    "country": "Finland",
    "named_by": "Anders Gustaf Ekeberg",
    "name_origin": "Ytterby, Sweden"
  },
  "applications": [
    "Yttrium-aluminum-garnet (YAG) lasers",
    "LED phosphors",
    "Superconductors (YBCO)",
    "Spark plugs",
    "Camera lenses"
  ],
  "hazards": {
    "ghs_pictograms": [],
    "signal_word": null,
    "nfpa_704": null,
    "hazard_statements": [],
    "autoignition_temp_k": null,
    "flash_point_k": null,
    "explosive_limits_percent": null
  },
  "reactions": []
}