{
  "name": "Zirconium",
  "symbol": "Zr",
  "atomic_number": 40,
  "atomic_mass_u": 91.224,
  "atomic_mass_uncertainty_u": 0.002,
  "classification": {
    "group": 4,
    "period": 5,
    "block": "d",
    "category": "transition metal",
    "series": "transition metal",
    "natural_occurrence": "primordial"
  },
  "atomic_structure": {
    "electron_configuration": "[Kr] 4d2 5s2",
    "electron_configuration_long": "1s2 2s2 2p6 3s2 3p6 3d10 4s2 4p6 4d2 5s2",
    "electron_shells": [
      2,
      8,
      18,
      10,
      2
    ],
    "valence_electrons": 4,
    "oxidation_states": [
      1,
      2,
      3,
      4
    ],
    "common_oxidation_states": [
      4
    ],
    "electronegativity_pauling": 1.33,
    "ionization_energies_kj_mol": [
      640.1
    ],
    "electron_affinity_kj_mol": 41.806,
    "atomic_radius_pm": 206,
    "covalent_radius_pm": 175,
    "van_der_waals_radius_pm": null
  },
  "physical_properties": {
    "phase_at_stp": "solid",
    "melting_point_k": 2128.0,
    "boiling_point_k": 4682.0,
    "density_kg_m3": 6506.0,
    "density_liquid_kg_m3": null,
    "triple_point_k": null,
    "triple_point_kpa": null,
    "critical_point_k": null,
    "critical_point_mpa": null,
    "heat_of_fusion_kj_mol": 14.0,
    "heat_of_vaporization_kj_mol": 591.0,
    "molar_heat_capacity_j_mol_k": 25.36,
    "color": "silvery-white",
    "crystal_structure": "hexagonal close-packed",
    "magnetic_ordering": "paramagnetic",
    "speed_of_sound_m_s": 3800,
    "thermal_conductivity_w_m_k": 22.6,
    "thermal_expansion_per_k": 5.7e-06,
    "mohs_hardness": 5.0,
    "bulk_modulus_gpa": 91.1,
    "shear_modulus_gpa": 33,
    "young_modulus_gpa": 68,
    "poisson_ratio": 0.34
  },
  "nuclear_properties": {
    "radioactive": false,
    "half_life": null,
    "decay_mode": null,
    "stable_isotopes": [
      90,
      91,
      92,
      94
    ],
    "isotopes": [
      {
        "mass_number": 91,
        "symbol": "91Zr",
        "name": null,
        "neutrons": 51,
        "abundance_percent": null,
        "mass_u": 91.224,
        "half_life": "stable",
        "decay_mode": null,
        "spin": null
      }
    ]
  },
  "abundance": {
    "universe_percent": null,
    "solar_percent": null,
    "earth_crust_ppm": 165,
    "ocean_ppm": null,
    "human_body_percent": 5e-06
  },
  "discovery": {
    "year": 1789,
    "discoverers": [
      "Martin Heinrich Klaproth"
    ],
    "country": "Germany",
    "named_by": "Martin Heinrich Klaproth",
    "name_origin": "Arabic 'zargun' (gold-like)"
  },
  "applications": [
    "Nuclear reactor fuel rod cladding",
    "Ceramics (zirconia)",
    "Chemical process equipment",
    "Dental crowns",
    "Jewelry (cubic zirconia)"
  ],
  "hazards": {
    "ghs_pictograms": [
      "GHS02"
    ],
    "signal_word": "Danger",
    "nfpa_704": null,
    "hazard_statements": [],
    "autoignition_temp_k": null,
    "flash_point_k": null,
    "explosive_limits_percent": null
  },
  "reactions": []
}