{
  "name": "Molybdenum",
  "symbol": "Mo",
  "atomic_number": 42,
  "atomic_mass_u": 95.95,
  "atomic_mass_uncertainty_u": 0.01,
  "classification": {
    "group": 6,
    "period": 5,
    "block": "d",
    "category": "transition metal",
    "series": "transition metal",
    "natural_occurrence": "primordial"
  },
  "atomic_structure": {
    "electron_configuration": "[Kr] 4d5 5s1",
    "electron_configuration_long": "1s2 2s2 2p6 3s2 3p6 3d10 4s2 4p6 4d5 5s1",
    "electron_shells": [
      2,
      8,
      18,
      13,
      1
    ],
    "valence_electrons": 6,
    "oxidation_states": [
      -4,
      -2,
      -1,
      1,
      2,
      3,
      4,
      5,
      6
    ],
    "common_oxidation_states": [
      4,
      6
    ],
    "electronegativity_pauling": 2.16,
    "ionization_energies_kj_mol": [
      684.3
    ],
    "electron_affinity_kj_mol": 72.1,
    "atomic_radius_pm": 190,
    "covalent_radius_pm": 154,
    "van_der_waals_radius_pm": null
  },
  "physical_properties": {
    "phase_at_stp": "solid",
    "melting_point_k": 2896.0,
    "boiling_point_k": 4912.0,
    "density_kg_m3": 10220.0,
    "density_liquid_kg_m3": null,
    "triple_point_k": null,
    "triple_point_kpa": null,
    "critical_point_k": null,
    "critical_point_mpa": null,
    "heat_of_fusion_kj_mol": 37.48,
    "heat_of_vaporization_kj_mol": 617.0,
    "molar_heat_capacity_j_mol_k": 24.06,
    "color": "grey",
    "crystal_structure": "body-centered cubic",
    "magnetic_ordering": "paramagnetic",
    "speed_of_sound_m_s": 6190,
    "thermal_conductivity_w_m_k": 138.0,
    "thermal_expansion_per_k": 4.8e-06,
    "mohs_hardness": 5.5,
    "bulk_modulus_gpa": 230,
    "shear_modulus_gpa": 126,
    "young_modulus_gpa": 329,
    "poisson_ratio": 0.31
  },
  "nuclear_properties": {
    "radioactive": false,
    "half_life": null,
    "decay_mode": null,
    "stable_isotopes": [
      92,
      94,
      95,
      96,
      97,
      98
    ],
    "isotopes": [
      {
        "mass_number": 96,
        "symbol": "96Mo",
        "name": null,
        "neutrons": 54,
        "abundance_percent": null,
        "mass_u": 95.95,
        "half_life": "stable",
        "decay_mode": null,
        "spin": null
      }
    ]
  },
  "abundance": {
    "universe_percent": null,
    "solar_percent": null,
    "earth_crust_ppm": 1.2,
    "ocean_ppm": null,
    "human_body_percent": 1e-05
  },
  "discovery": {
    "year": 1781,
    "discoverers": [
      "Carl Wilhelm Scheele"
    ],
    "country": "Sweden",
    "named_by": "Carl Wilhelm Scheele",
    "name_origin": "Greek 'molybdos' (lead)"
  },
  "applications": [
    "High-strength steel alloys",
    "Catalysts (HDS in refineries)",
    "Lubricant additives (MoS2)",
    "Filaments",
    "Nuclear energy"
  ],
  "hazards": {
    "ghs_pictograms": [],
    "signal_word": null,
    "nfpa_704": null,
    "hazard_statements": [],
    "autoignition_temp_k": null,
    "flash_point_k": null,
    "explosive_limits_percent": null
  },
  "reactions": [
    {
      "id": "N-biological-001",
      "name": "Biological nitrogen fixation",
      "equation": "N2(g) + 8 H+(aq) + 8 e- + 16 ATP(aq) -> 2 NH3(aq) + H2(g) + 16 ADP(aq) + 16 Pi(aq)",
      "type": "nitrogen fixation",
      "category": "biological",
      "delta_h_kj": null,
      "conditions": "nitrogenase (Fe-Mo cofactor); obligate anaerobic conditions for enzyme; Rhizobium in legume root nodules",
      "description": "Nitrogenase reduces N2 to NH3 at ambient conditions. Requires 16 ATP per N2. FeMo cofactor active site.",
      "reversible": false
    }
  ]
}
