{
  "name": "Rhodium",
  "symbol": "Rh",
  "atomic_number": 45,
  "atomic_mass_u": 102.91,
  "atomic_mass_uncertainty_u": 0.01,
  "classification": {
    "group": 9,
    "period": 5,
    "block": "d",
    "category": "transition metal",
    "series": "transition metal",
    "natural_occurrence": "primordial"
  },
  "atomic_structure": {
    "electron_configuration": "[Kr] 4d8 5s1",
    "electron_configuration_long": "1s2 2s2 2p6 3s2 3p6 3d10 4s2 4p6 4d8 5s1",
    "electron_shells": [
      2,
      8,
      18,
      16,
      1
    ],
    "valence_electrons": 9,
    "oxidation_states": [
      -3,
      -1,
      1,
      2,
      3,
      4,
      5,
      6
    ],
    "common_oxidation_states": [
      3
    ],
    "electronegativity_pauling": 2.28,
    "ionization_energies_kj_mol": [
      719.7
    ],
    "electron_affinity_kj_mol": 110.27,
    "atomic_radius_pm": 173,
    "covalent_radius_pm": 142,
    "van_der_waals_radius_pm": null
  },
  "physical_properties": {
    "phase_at_stp": "solid",
    "melting_point_k": 2237.0,
    "boiling_point_k": 3968.0,
    "density_kg_m3": 12410.0,
    "density_liquid_kg_m3": null,
    "triple_point_k": null,
    "triple_point_kpa": null,
    "critical_point_k": null,
    "critical_point_mpa": null,
    "heat_of_fusion_kj_mol": 26.59,
    "heat_of_vaporization_kj_mol": 494.0,
    "molar_heat_capacity_j_mol_k": 24.98,
    "color": "silvery-white",
    "crystal_structure": "face-centered cubic",
    "magnetic_ordering": "paramagnetic",
    "speed_of_sound_m_s": 4700,
    "thermal_conductivity_w_m_k": 150.0,
    "thermal_expansion_per_k": 8.2e-06,
    "mohs_hardness": 6.0,
    "bulk_modulus_gpa": 380,
    "shear_modulus_gpa": 150,
    "young_modulus_gpa": 380,
    "poisson_ratio": 0.26
  },
  "nuclear_properties": {
    "radioactive": false,
    "half_life": null,
    "decay_mode": null,
    "stable_isotopes": [
      103
    ],
    "isotopes": [
      {
        "mass_number": 103,
        "symbol": "103Rh",
        "name": null,
        "neutrons": 58,
        "abundance_percent": 100.0,
        "mass_u": 102.91,
        "half_life": "stable",
        "decay_mode": null,
        "spin": null
      }
    ]
  },
  "abundance": {
    "universe_percent": null,
    "solar_percent": null,
    "earth_crust_ppm": 0.001,
    "ocean_ppm": null,
    "human_body_percent": null
  },
  "discovery": {
    "year": 1803,
    "discoverers": [
      "William Hyde Wollaston"
    ],
    "country": "England",
    "named_by": "William Hyde Wollaston",
    "name_origin": "Greek 'rhodon' (rose)"
  },
  "applications": [
    "Catalytic converters (automotive)",
    "Catalysts (organic chemistry)",
    "Electrical contacts",
    "Rhodium plating (jewelry)"
  ],
  "hazards": {
    "ghs_pictograms": [],
    "signal_word": null,
    "nfpa_704": null,
    "hazard_statements": [],
    "autoignition_temp_k": null,
    "flash_point_k": null,
    "explosive_limits_percent": null
  },
  "reactions": []
}