{
  "name": "Palladium",
  "symbol": "Pd",
  "atomic_number": 46,
  "atomic_mass_u": 106.42,
  "atomic_mass_uncertainty_u": 0.01,
  "classification": {
    "group": 10,
    "period": 5,
    "block": "d",
    "category": "transition metal",
    "series": "transition metal",
    "natural_occurrence": "primordial"
  },
  "atomic_structure": {
    "electron_configuration": "[Kr] 4d10",
    "electron_configuration_long": "1s2 2s2 2p6 3s2 3p6 3d10 4s2 4p6 4d10",
    "electron_shells": [
      2,
      8,
      18,
      18,
      0
    ],
    "valence_electrons": 10,
    "oxidation_states": [
      0,
      1,
      2,
      3,
      4
    ],
    "common_oxidation_states": [
      2,
      4
    ],
    "electronegativity_pauling": 2.2,
    "ionization_energies_kj_mol": [
      804.4
    ],
    "electron_affinity_kj_mol": 54.24,
    "atomic_radius_pm": 169,
    "covalent_radius_pm": 139,
    "van_der_waals_radius_pm": 163
  },
  "physical_properties": {
    "phase_at_stp": "solid",
    "melting_point_k": 1828.05,
    "boiling_point_k": 3236.0,
    "density_kg_m3": 12020.0,
    "density_liquid_kg_m3": null,
    "triple_point_k": null,
    "triple_point_kpa": null,
    "critical_point_k": null,
    "critical_point_mpa": null,
    "heat_of_fusion_kj_mol": 16.74,
    "heat_of_vaporization_kj_mol": 362.0,
    "molar_heat_capacity_j_mol_k": 25.98,
    "color": "silvery-white",
    "crystal_structure": "face-centered cubic",
    "magnetic_ordering": "paramagnetic",
    "speed_of_sound_m_s": 3070,
    "thermal_conductivity_w_m_k": 71.8,
    "thermal_expansion_per_k": 1.18e-05,
    "mohs_hardness": 4.75,
    "bulk_modulus_gpa": 180,
    "shear_modulus_gpa": 44,
    "young_modulus_gpa": 121,
    "poisson_ratio": 0.39
  },
  "nuclear_properties": {
    "radioactive": false,
    "half_life": null,
    "decay_mode": null,
    "stable_isotopes": [
      102,
      104,
      105,
      106,
      108,
      110
    ],
    "isotopes": [
      {
        "mass_number": 106,
        "symbol": "106Pd",
        "name": null,
        "neutrons": 60,
        "abundance_percent": null,
        "mass_u": 106.42,
        "half_life": "stable",
        "decay_mode": null,
        "spin": null
      }
    ]
  },
  "abundance": {
    "universe_percent": null,
    "solar_percent": null,
    "earth_crust_ppm": 0.015,
    "ocean_ppm": null,
    "human_body_percent": null
  },
  "discovery": {
    "year": 1803,
    "discoverers": [
      "William Hyde Wollaston"
    ],
    "country": "England",
    "named_by": "William Hyde Wollaston",
    "name_origin": "Asteroid Pallas"
  },
  "applications": [
    "Catalytic converters",
    "Electronics (MLCC capacitors)",
    "Dentistry",
    "Hydrogen purification membranes",
    "Catalysts (Suzuki coupling)"
  ],
  "hazards": {
    "ghs_pictograms": [],
    "signal_word": null,
    "nfpa_704": null,
    "hazard_statements": [],
    "autoignition_temp_k": null,
    "flash_point_k": null,
    "explosive_limits_percent": null
  },
  "reactions": []
}