{
  "name": "Silver",
  "symbol": "Ag",
  "atomic_number": 47,
  "atomic_mass_u": 107.87,
  "atomic_mass_uncertainty_u": 0.02,
  "classification": {
    "group": 11,
    "period": 5,
    "block": "d",
    "category": "transition metal",
    "series": "transition metal",
    "natural_occurrence": "primordial"
  },
  "atomic_structure": {
    "electron_configuration": "[Kr] 4d10 5s1",
    "electron_configuration_long": "1s2 2s2 2p6 3s2 3p6 3d10 4s2 4p6 4d10 5s1",
    "electron_shells": [
      2,
      8,
      18,
      18,
      1
    ],
    "valence_electrons": 11,
    "oxidation_states": [
      1,
      2,
      3
    ],
    "common_oxidation_states": [
      1
    ],
    "electronegativity_pauling": 1.93,
    "ionization_energies_kj_mol": [
      731.0
    ],
    "electron_affinity_kj_mol": 125.862,
    "atomic_radius_pm": 165,
    "covalent_radius_pm": 145,
    "van_der_waals_radius_pm": 172
  },
  "physical_properties": {
    "phase_at_stp": "solid",
    "melting_point_k": 1234.93,
    "boiling_point_k": 2435.0,
    "density_kg_m3": 10490.0,
    "density_liquid_kg_m3": 9320.0,
    "triple_point_k": null,
    "triple_point_kpa": null,
    "critical_point_k": null,
    "critical_point_mpa": null,
    "heat_of_fusion_kj_mol": 11.28,
    "heat_of_vaporization_kj_mol": 254.0,
    "molar_heat_capacity_j_mol_k": 25.35,
    "color": "lustrous white",
    "crystal_structure": "face-centered cubic",
    "magnetic_ordering": "diamagnetic",
    "speed_of_sound_m_s": 2600,
    "thermal_conductivity_w_m_k": 429.0,
    "thermal_expansion_per_k": 1.89e-05,
    "mohs_hardness": 2.5,
    "bulk_modulus_gpa": 100,
    "shear_modulus_gpa": 30,
    "young_modulus_gpa": 83,
    "poisson_ratio": 0.37
  },
  "nuclear_properties": {
    "radioactive": false,
    "half_life": null,
    "decay_mode": null,
    "stable_isotopes": [
      107,
      109
    ],
    "isotopes": [
      {
        "mass_number": 107,
        "symbol": "107Ag",
        "name": null,
        "neutrons": 60,
        "abundance_percent": 51.839,
        "mass_u": 106.905097,
        "half_life": "stable",
        "decay_mode": null,
        "spin": "1/2-"
      },
      {
        "mass_number": 109,
        "symbol": "109Ag",
        "name": null,
        "neutrons": 62,
        "abundance_percent": 48.161,
        "mass_u": 108.904752,
        "half_life": "stable",
        "decay_mode": null,
        "spin": "1/2-"
      }
    ]
  },
  "abundance": {
    "universe_percent": null,
    "solar_percent": null,
    "earth_crust_ppm": 0.075,
    "ocean_ppm": null,
    "human_body_percent": null
  },
  "discovery": {
    "year": null,
    "discoverers": [
      "Known since antiquity"
    ],
    "country": null,
    "named_by": null,
    "name_origin": "Anglo-Saxon 'seolfor' / Latin 'argentum'"
  },
  "applications": [
    "Jewelry and silverware",
    "Photography (silver halides)",
    "Electronics (conductive paste)",
    "Mirrors",
    "Antibacterial wound dressings",
    "Coins",
    "Solar cells (silver paste)"
  ],
  "hazards": {
    "ghs_pictograms": [],
    "signal_word": null,
    "nfpa_704": {
      "health": 0,
      "flammability": 0,
      "reactivity": 0,
      "special": ""
    },
    "hazard_statements": [],
    "autoignition_temp_k": null,
    "flash_point_k": null,
    "explosive_limits_percent": null
  },
  "reactions": [
    {
      "id": "Ag-laboratory-001",
      "name": "Silver chloride precipitation",
      "equation": "AgNO3(aq) + NaCl(aq) -> AgCl(s) + NaNO3(aq)",
      "type": "precipitation",
      "category": "laboratory",
      "delta_h_kj": -65.5,
      "conditions": null,
      "description": "Classic precipitation. White curdy precipitate. Ksp = 1.77e-10. Used in chloride analysis.",
      "reversible": false
    },
    {
      "id": "C-laboratory-007",
      "name": "Tollens' test (silver mirror)",
      "equation": "RCHO(aq) + 2 [Ag(NH3)2]+(aq) + 2 OH-(aq) -> RCOO-(aq) + 2 Ag(s) + 4 NH3(aq) + H2O(l)",
      "type": "oxidation",
      "category": "laboratory",
      "delta_h_kj": null,
      "conditions": "warm gently; silver deposits as mirror on clean glass",
      "description": "Silver mirror test distinguishes aldehydes from ketones. Ag+ reduced to metallic silver.",
      "reversible": false
    }
  ]
}
