{
  "name": "Cadmium",
  "symbol": "Cd",
  "atomic_number": 48,
  "atomic_mass_u": 112.41,
  "atomic_mass_uncertainty_u": 0.01,
  "classification": {
    "group": 12,
    "period": 5,
    "block": "d",
    "category": "post-transition metal",
    "series": "poor metal",
    "natural_occurrence": "primordial"
  },
  "atomic_structure": {
    "electron_configuration": "[Kr] 4d10 5s2",
    "electron_configuration_long": "1s2 2s2 2p6 3s2 3p6 3d10 4s2 4p6 4d10 5s2",
    "electron_shells": [
      2,
      8,
      18,
      18,
      2
    ],
    "valence_electrons": 2,
    "oxidation_states": [
      1,
      2
    ],
    "common_oxidation_states": [
      2
    ],
    "electronegativity_pauling": 1.69,
    "ionization_energies_kj_mol": [
      867.8
    ],
    "electron_affinity_kj_mol": -68.0,
    "atomic_radius_pm": 161,
    "covalent_radius_pm": 144,
    "van_der_waals_radius_pm": 158
  },
  "physical_properties": {
    "phase_at_stp": "solid",
    "melting_point_k": 594.22,
    "boiling_point_k": 1040.0,
    "density_kg_m3": 8650.0,
    "density_liquid_kg_m3": null,
    "triple_point_k": null,
    "triple_point_kpa": null,
    "critical_point_k": null,
    "critical_point_mpa": null,
    "heat_of_fusion_kj_mol": 6.21,
    "heat_of_vaporization_kj_mol": 99.87,
    "molar_heat_capacity_j_mol_k": 26.02,
    "color": "silvery blue-grey",
    "crystal_structure": "hexagonal close-packed",
    "magnetic_ordering": "diamagnetic",
    "speed_of_sound_m_s": 2310,
    "thermal_conductivity_w_m_k": 96.6,
    "thermal_expansion_per_k": 3.08e-05,
    "mohs_hardness": 2.0,
    "bulk_modulus_gpa": 42,
    "shear_modulus_gpa": 19,
    "young_modulus_gpa": 50,
    "poisson_ratio": 0.3
  },
  "nuclear_properties": {
    "radioactive": false,
    "half_life": null,
    "decay_mode": null,
    "stable_isotopes": [
      106,
      108,
      110,
      111,
      112,
      114
    ],
    "isotopes": [
      {
        "mass_number": 112,
        "symbol": "112Cd",
        "name": null,
        "neutrons": 64,
        "abundance_percent": null,
        "mass_u": 112.41,
        "half_life": "stable",
        "decay_mode": null,
        "spin": null
      }
    ]
  },
  "abundance": {
    "universe_percent": null,
    "solar_percent": null,
    "earth_crust_ppm": 0.15,
    "ocean_ppm": null,
    "human_body_percent": null
  },
  "discovery": {
    "year": 1817,
    "discoverers": [
      "Friedrich Stromeyer",
      "Karl Samuel Leberecht Hermann"
    ],
    "country": "Germany",
    "named_by": "Friedrich Stromeyer",
    "name_origin": "Greek 'kadmeia' (calamine)"
  },
  "applications": [
    "NiCd batteries (phasing out)",
    "Pigments (cadmium yellow/red)",
    "Nuclear reactor control rods",
    "Photovoltaics (CdTe)",
    "Coatings (corrosion resistance)"
  ],
  "hazards": {
    "ghs_pictograms": [
      "GHS06",
      "GHS08",
      "GHS09"
    ],
    "signal_word": "Danger",
    "nfpa_704": null,
    "hazard_statements": [],
    "autoignition_temp_k": null,
    "flash_point_k": null,
    "explosive_limits_percent": null
  },
  "reactions": []
}