{
  "name": "Indium",
  "symbol": "In",
  "atomic_number": 49,
  "atomic_mass_u": 114.82,
  "atomic_mass_uncertainty_u": 0.01,
  "classification": {
    "group": 13,
    "period": 5,
    "block": "p",
    "category": "post-transition metal",
    "series": "poor metal",
    "natural_occurrence": "primordial"
  },
  "atomic_structure": {
    "electron_configuration": "[Kr] 4d10 5s2 5p1",
    "electron_configuration_long": "1s2 2s2 2p6 3s2 3p6 3d10 4s2 4p6 4d10 5s2 5p1",
    "electron_shells": [
      2,
      8,
      18,
      18,
      3
    ],
    "valence_electrons": 3,
    "oxidation_states": [
      1,
      2,
      3
    ],
    "common_oxidation_states": [
      3
    ],
    "electronegativity_pauling": 1.78,
    "ionization_energies_kj_mol": [
      558.3
    ],
    "electron_affinity_kj_mol": 37.043,
    "atomic_radius_pm": 156,
    "covalent_radius_pm": 142,
    "van_der_waals_radius_pm": 193
  },
  "physical_properties": {
    "phase_at_stp": "solid",
    "melting_point_k": 429.75,
    "boiling_point_k": 2345.0,
    "density_kg_m3": 7310.0,
    "density_liquid_kg_m3": null,
    "triple_point_k": null,
    "triple_point_kpa": null,
    "critical_point_k": null,
    "critical_point_mpa": null,
    "heat_of_fusion_kj_mol": 3.281,
    "heat_of_vaporization_kj_mol": 231.8,
    "molar_heat_capacity_j_mol_k": 26.74,
    "color": "silvery-white",
    "crystal_structure": "tetragonal",
    "magnetic_ordering": "diamagnetic",
    "speed_of_sound_m_s": 1215,
    "thermal_conductivity_w_m_k": 81.8,
    "thermal_expansion_per_k": 3.21e-05,
    "mohs_hardness": 1.2,
    "bulk_modulus_gpa": 42,
    "shear_modulus_gpa": null,
    "young_modulus_gpa": 11,
    "poisson_ratio": null
  },
  "nuclear_properties": {
    "radioactive": false,
    "half_life": null,
    "decay_mode": null,
    "stable_isotopes": [
      113
    ],
    "isotopes": [
      {
        "mass_number": 115,
        "symbol": "115In",
        "name": null,
        "neutrons": 66,
        "abundance_percent": null,
        "mass_u": 114.82,
        "half_life": "stable",
        "decay_mode": null,
        "spin": null
      }
    ]
  },
  "abundance": {
    "universe_percent": null,
    "solar_percent": null,
    "earth_crust_ppm": 0.25,
    "ocean_ppm": null,
    "human_body_percent": null
  },
  "discovery": {
    "year": 1863,
    "discoverers": [
      "Ferdinand Reich",
      "Hieronymous Theodor Richter"
    ],
    "country": "Germany",
    "named_by": "Ferdinand Reich",
    "name_origin": "Indigo spectral line"
  },
  "applications": [
    "Touchscreen displays (ITO)",
    "Semiconductors (InP, InGaAs)",
    "Solders (low-melting)",
    "LED/laser diodes",
    "Thermal interface materials"
  ],
  "hazards": {
    "ghs_pictograms": [],
    "signal_word": null,
    "nfpa_704": null,
    "hazard_statements": [],
    "autoignition_temp_k": null,
    "flash_point_k": null,
    "explosive_limits_percent": null
  },
  "reactions": []
}