{
  "name": "Tin",
  "symbol": "Sn",
  "atomic_number": 50,
  "atomic_mass_u": 118.71,
  "atomic_mass_uncertainty_u": 0.01,
  "classification": {
    "group": 14,
    "period": 5,
    "block": "p",
    "category": "post-transition metal",
    "series": "poor metal",
    "natural_occurrence": "primordial"
  },
  "atomic_structure": {
    "electron_configuration": "[Kr] 4d10 5s2 5p2",
    "electron_configuration_long": "1s2 2s2 2p6 3s2 3p6 3d10 4s2 4p6 4d10 5s2 5p2",
    "electron_shells": [
      2,
      8,
      18,
      18,
      4
    ],
    "valence_electrons": 4,
    "oxidation_states": [
      -4,
      2,
      4
    ],
    "common_oxidation_states": [
      2,
      4
    ],
    "electronegativity_pauling": 1.96,
    "ionization_energies_kj_mol": [
      708.6
    ],
    "electron_affinity_kj_mol": 107.298,
    "atomic_radius_pm": 145,
    "covalent_radius_pm": 139,
    "van_der_waals_radius_pm": 217
  },
  "physical_properties": {
    "phase_at_stp": "solid",
    "melting_point_k": 505.08,
    "boiling_point_k": 2875.0,
    "density_kg_m3": 7265.0,
    "density_liquid_kg_m3": null,
    "triple_point_k": null,
    "triple_point_kpa": null,
    "critical_point_k": null,
    "critical_point_mpa": null,
    "heat_of_fusion_kj_mol": 7.03,
    "heat_of_vaporization_kj_mol": 296.1,
    "molar_heat_capacity_j_mol_k": 27.112,
    "color": "silvery-white",
    "crystal_structure": "tetragonal",
    "magnetic_ordering": "diamagnetic",
    "speed_of_sound_m_s": 2500,
    "thermal_conductivity_w_m_k": 66.8,
    "thermal_expansion_per_k": 2.2e-05,
    "mohs_hardness": 1.5,
    "bulk_modulus_gpa": 58,
    "shear_modulus_gpa": 18,
    "young_modulus_gpa": 50,
    "poisson_ratio": 0.36
  },
  "nuclear_properties": {
    "radioactive": false,
    "half_life": null,
    "decay_mode": null,
    "stable_isotopes": [
      112,
      114,
      115,
      116,
      117,
      118,
      119,
      120,
      122,
      124
    ],
    "isotopes": [
      {
        "mass_number": 119,
        "symbol": "119Sn",
        "name": null,
        "neutrons": 69,
        "abundance_percent": null,
        "mass_u": 118.71,
        "half_life": "stable",
        "decay_mode": null,
        "spin": null
      }
    ]
  },
  "abundance": {
    "universe_percent": null,
    "solar_percent": null,
    "earth_crust_ppm": 2.3,
    "ocean_ppm": null,
    "human_body_percent": null
  },
  "discovery": {
    "year": null,
    "discoverers": [
      "Known since antiquity"
    ],
    "country": null,
    "named_by": null,
    "name_origin": "Anglo-Saxon 'tin' / Latin 'stannum'"
  },
  "applications": [
    "Tin cans (tin-plated steel)",
    "Solder (Sn-Ag-Cu)",
    "Bronze alloys",
    "Float glass (Pilkington process)",
    "Pewter",
    "Tin oxide coatings"
  ],
  "hazards": {
    "ghs_pictograms": [],
    "signal_word": null,
    "nfpa_704": null,
    "hazard_statements": [],
    "autoignition_temp_k": null,
    "flash_point_k": null,
    "explosive_limits_percent": null
  },
  "reactions": [
    {
      "id": "Sn-industrial-001",
      "name": "Tin smelting",
      "equation": "SnO2(s) + 2 C(s) -> Sn(l) + 2 CO(g)",
      "type": "reduction",
      "category": "industrial",
      "delta_h_kj": null,
      "conditions": "1473 K; reverberatory furnace; one of the oldest smelting processes",
      "description": "Carbothermic reduction of cassiterite. Bronze Age technology. Tin used in solder and tinplate.",
      "reversible": false
    }
  ]
}
