{
  "name": "Antimony",
  "symbol": "Sb",
  "atomic_number": 51,
  "atomic_mass_u": 121.76,
  "atomic_mass_uncertainty_u": 0.01,
  "classification": {
    "group": 15,
    "period": 5,
    "block": "p",
    "category": "metalloid",
    "series": "metalloid",
    "natural_occurrence": "primordial"
  },
  "atomic_structure": {
    "electron_configuration": "[Kr] 4d10 5s2 5p3",
    "electron_configuration_long": "1s2 2s2 2p6 3s2 3p6 3d10 4s2 4p6 4d10 5s2 5p3",
    "electron_shells": [
      2,
      8,
      18,
      18,
      5
    ],
    "valence_electrons": 5,
    "oxidation_states": [
      -3,
      3,
      5
    ],
    "common_oxidation_states": [
      3,
      5
    ],
    "electronegativity_pauling": 2.05,
    "ionization_energies_kj_mol": [
      834.0
    ],
    "electron_affinity_kj_mol": 101.059,
    "atomic_radius_pm": 133,
    "covalent_radius_pm": 139,
    "van_der_waals_radius_pm": 206
  },
  "physical_properties": {
    "phase_at_stp": "solid",
    "melting_point_k": 903.78,
    "boiling_point_k": 1908.0,
    "density_kg_m3": 6697.0,
    "density_liquid_kg_m3": null,
    "triple_point_k": null,
    "triple_point_kpa": null,
    "critical_point_k": null,
    "critical_point_mpa": null,
    "heat_of_fusion_kj_mol": 19.87,
    "heat_of_vaporization_kj_mol": 193.43,
    "molar_heat_capacity_j_mol_k": 25.23,
    "color": "silvery lustrous grey",
    "crystal_structure": "rhombohedral",
    "magnetic_ordering": "diamagnetic",
    "speed_of_sound_m_s": 3420,
    "thermal_conductivity_w_m_k": 24.4,
    "thermal_expansion_per_k": 1.1e-05,
    "mohs_hardness": 3.0,
    "bulk_modulus_gpa": 42,
    "shear_modulus_gpa": 20,
    "young_modulus_gpa": 55,
    "poisson_ratio": null
  },
  "nuclear_properties": {
    "radioactive": false,
    "half_life": null,
    "decay_mode": null,
    "stable_isotopes": [
      121,
      123
    ],
    "isotopes": [
      {
        "mass_number": 122,
        "symbol": "122Sb",
        "name": null,
        "neutrons": 71,
        "abundance_percent": null,
        "mass_u": 121.76,
        "half_life": "stable",
        "decay_mode": null,
        "spin": null
      }
    ]
  },
  "abundance": {
    "universe_percent": null,
    "solar_percent": null,
    "earth_crust_ppm": 0.2,
    "ocean_ppm": null,
    "human_body_percent": null
  },
  "discovery": {
    "year": null,
    "discoverers": [
      "Known since antiquity (~3000 BCE)"
    ],
    "country": null,
    "named_by": null,
    "name_origin": "Greek 'anti + monos' (not alone) / Latin 'stibium'"
  },
  "applications": [
    "Flame retardants (Sb2O3)",
    "Lead-acid battery alloys",
    "Semiconductors",
    "Bullets and ammunition",
    "Pewter"
  ],
  "hazards": {
    "ghs_pictograms": [
      "GHS07"
    ],
    "signal_word": "Warning",
    "nfpa_704": null,
    "hazard_statements": [],
    "autoignition_temp_k": null,
    "flash_point_k": null,
    "explosive_limits_percent": null
  },
  "reactions": []
}