{
  "name": "Tellurium",
  "symbol": "Te",
  "atomic_number": 52,
  "atomic_mass_u": 127.6,
  "atomic_mass_uncertainty_u": 0.03,
  "classification": {
    "group": 16,
    "period": 5,
    "block": "p",
    "category": "metalloid",
    "series": "metalloid",
    "natural_occurrence": "primordial"
  },
  "atomic_structure": {
    "electron_configuration": "[Kr] 4d10 5s2 5p4",
    "electron_configuration_long": "1s2 2s2 2p6 3s2 3p6 3d10 4s2 4p6 4d10 5s2 5p4",
    "electron_shells": [
      2,
      8,
      18,
      18,
      6
    ],
    "valence_electrons": 6,
    "oxidation_states": [
      -2,
      2,
      4,
      5,
      6
    ],
    "common_oxidation_states": [
      -2,
      4,
      6
    ],
    "electronegativity_pauling": 2.1,
    "ionization_energies_kj_mol": [
      869.3
    ],
    "electron_affinity_kj_mol": 190.161,
    "atomic_radius_pm": 123,
    "covalent_radius_pm": 138,
    "van_der_waals_radius_pm": 206
  },
  "physical_properties": {
    "phase_at_stp": "solid",
    "melting_point_k": 722.66,
    "boiling_point_k": 1261.0,
    "density_kg_m3": 6240.0,
    "density_liquid_kg_m3": null,
    "triple_point_k": null,
    "triple_point_kpa": null,
    "critical_point_k": null,
    "critical_point_mpa": null,
    "heat_of_fusion_kj_mol": 17.49,
    "heat_of_vaporization_kj_mol": 114.1,
    "molar_heat_capacity_j_mol_k": 25.73,
    "color": "silvery lustrous",
    "crystal_structure": "hexagonal",
    "magnetic_ordering": "diamagnetic",
    "speed_of_sound_m_s": 2610,
    "thermal_conductivity_w_m_k": 2.35,
    "thermal_expansion_per_k": 1.8e-05,
    "mohs_hardness": 2.25,
    "bulk_modulus_gpa": null,
    "shear_modulus_gpa": null,
    "young_modulus_gpa": null,
    "poisson_ratio": null
  },
  "nuclear_properties": {
    "radioactive": false,
    "half_life": null,
    "decay_mode": null,
    "stable_isotopes": [
      120,
      122,
      123,
      124,
      125,
      126
    ],
    "isotopes": [
      {
        "mass_number": 128,
        "symbol": "128Te",
        "name": null,
        "neutrons": 76,
        "abundance_percent": null,
        "mass_u": 127.6,
        "half_life": "stable",
        "decay_mode": null,
        "spin": null
      }
    ]
  },
  "abundance": {
    "universe_percent": null,
    "solar_percent": null,
    "earth_crust_ppm": 0.001,
    "ocean_ppm": null,
    "human_body_percent": null
  },
  "discovery": {
    "year": 1783,
    "discoverers": [
      "Franz-Joseph Muller von Reichenstein"
    ],
    "country": "Romania",
    "named_by": "Martin Heinrich Klaproth",
    "name_origin": "Latin 'tellus' (earth)"
  },
  "applications": [
    "Semiconductor (CdTe solar cells)",
    "Thermoelectric devices (Bi2Te3)",
    "Vulcanization of rubber",
    "Machining additive in steel"
  ],
  "hazards": {
    "ghs_pictograms": [
      "GHS07",
      "GHS08"
    ],
    "signal_word": "Warning",
    "nfpa_704": null,
    "hazard_statements": [],
    "autoignition_temp_k": null,
    "flash_point_k": null,
    "explosive_limits_percent": null
  },
  "reactions": []
}