{
  "name": "Xenon",
  "symbol": "Xe",
  "atomic_number": 54,
  "atomic_mass_u": 131.29,
  "atomic_mass_uncertainty_u": 0.01,
  "classification": {
    "group": 18,
    "period": 5,
    "block": "p",
    "category": "noble gas",
    "series": "noble gas",
    "natural_occurrence": "primordial"
  },
  "atomic_structure": {
    "electron_configuration": "[Kr] 4d10 5s2 5p6",
    "electron_configuration_long": "1s2 2s2 2p6 3s2 3p6 3d10 4s2 4p6 4d10 5s2 5p6",
    "electron_shells": [
      2,
      8,
      18,
      18,
      8
    ],
    "valence_electrons": 8,
    "oxidation_states": [
      0,
      2,
      4,
      6,
      8
    ],
    "common_oxidation_states": [
      0,
      2,
      4,
      6
    ],
    "electronegativity_pauling": 2.6,
    "ionization_energies_kj_mol": [
      1170.4
    ],
    "electron_affinity_kj_mol": -77.0,
    "atomic_radius_pm": 108,
    "covalent_radius_pm": 140,
    "van_der_waals_radius_pm": 216
  },
  "physical_properties": {
    "phase_at_stp": "gas",
    "melting_point_k": 161.4,
    "boiling_point_k": 165.051,
    "density_kg_m3": 5.894,
    "density_liquid_kg_m3": 2942.0,
    "triple_point_k": 161.405,
    "triple_point_kpa": 81.77,
    "critical_point_k": 289.733,
    "critical_point_mpa": 5.842,
    "heat_of_fusion_kj_mol": 2.27,
    "heat_of_vaporization_kj_mol": 12.64,
    "molar_heat_capacity_j_mol_k": 20.786,
    "color": "colorless",
    "crystal_structure": "face-centered cubic",
    "magnetic_ordering": "diamagnetic",
    "speed_of_sound_m_s": 1090,
    "thermal_conductivity_w_m_k": 0.00565,
    "thermal_expansion_per_k": null,
    "mohs_hardness": null,
    "bulk_modulus_gpa": null,
    "shear_modulus_gpa": null,
    "young_modulus_gpa": null,
    "poisson_ratio": null
  },
  "nuclear_properties": {
    "radioactive": false,
    "half_life": null,
    "decay_mode": null,
    "stable_isotopes": [
      124,
      126,
      128,
      129,
      130,
      131,
      132,
      134,
      136
    ],
    "isotopes": [
      {
        "mass_number": 131,
        "symbol": "131Xe",
        "name": null,
        "neutrons": 77,
        "abundance_percent": null,
        "mass_u": 131.29,
        "half_life": "stable",
        "decay_mode": null,
        "spin": null
      }
    ]
  },
  "abundance": {
    "universe_percent": null,
    "solar_percent": null,
    "earth_crust_ppm": 3e-05,
    "ocean_ppm": null,
    "human_body_percent": null
  },
  "discovery": {
    "year": 1898,
    "discoverers": [
      "William Ramsay",
      "Morris Travers"
    ],
    "country": "England",
    "named_by": "William Ramsay",
    "name_origin": "Greek 'xenos' (stranger)"
  },
  "applications": [
    "Ion propulsion engines (spacecraft)",
    "Xenon arc lamps",
    "General anesthesia",
    "Plasma displays",
    "Lighting (flash/stroboscopic)"
  ],
  "hazards": {
    "ghs_pictograms": [
      "GHS04"
    ],
    "signal_word": "Warning",
    "nfpa_704": null,
    "hazard_statements": [],
    "autoignition_temp_k": null,
    "flash_point_k": null,
    "explosive_limits_percent": null
  },
  "reactions": [
    {
      "id": "Xe-notable-001",
      "name": "Xenon hexafluoroplatinate (first noble gas compound)",
      "equation": "Xe(g) + PtF6(g) -> [XePtF6](s)",
      "type": "synthesis",
      "category": "notable",
      "delta_h_kj": null,
      "conditions": "Neil Bartlett, 1962; orange-yellow solid",
      "description": "First noble gas compound. Neil Bartlett (1962) shattered the 'noble gases are inert' dogma.",
      "reversible": false
    },
    {
      "id": "Xe-notable-002",
      "name": "Xenon difluoride synthesis",
      "equation": "Xe(g) + F2(g) -> XeF2(s)",
      "type": "synthesis",
      "category": "notable",
      "delta_h_kj": -108,
      "conditions": "UV irradiation or high pressure; colorless crystals; used in semiconductor etching",
      "description": "Simplest noble gas compound made synthetically. Linear molecule. Used in semiconductor fabrication.",
      "reversible": false
    }
  ]
}
