{
  "name": "Caesium",
  "symbol": "Cs",
  "atomic_number": 55,
  "atomic_mass_u": 132.91,
  "atomic_mass_uncertainty_u": 0.01,
  "classification": {
    "group": 1,
    "period": 6,
    "block": "s",
    "category": "alkali metal",
    "series": "alkali metal",
    "natural_occurrence": "primordial"
  },
  "atomic_structure": {
    "electron_configuration": "[Xe] 6s1",
    "electron_configuration_long": "1s2 2s2 2p6 3s2 3p6 3d10 4s2 4p6 4d10 5s2 5p6 6s1",
    "electron_shells": [
      2,
      8,
      18,
      18,
      8,
      1
    ],
    "valence_electrons": 1,
    "oxidation_states": [
      -1,
      1
    ],
    "common_oxidation_states": [
      1
    ],
    "electronegativity_pauling": 0.79,
    "ionization_energies_kj_mol": [
      375.7
    ],
    "electron_affinity_kj_mol": 45.505,
    "atomic_radius_pm": 298,
    "covalent_radius_pm": 244,
    "van_der_waals_radius_pm": 343
  },
  "physical_properties": {
    "phase_at_stp": "solid",
    "melting_point_k": 301.7,
    "boiling_point_k": 944.0,
    "density_kg_m3": 1873.0,
    "density_liquid_kg_m3": 1843.0,
    "triple_point_k": null,
    "triple_point_kpa": null,
    "critical_point_k": null,
    "critical_point_mpa": null,
    "heat_of_fusion_kj_mol": 2.09,
    "heat_of_vaporization_kj_mol": 63.9,
    "molar_heat_capacity_j_mol_k": 32.21,
    "color": "silvery-gold",
    "crystal_structure": "body-centered cubic",
    "magnetic_ordering": "paramagnetic",
    "speed_of_sound_m_s": null,
    "thermal_conductivity_w_m_k": 35.9,
    "thermal_expansion_per_k": 9.7e-05,
    "mohs_hardness": 0.2,
    "bulk_modulus_gpa": null,
    "shear_modulus_gpa": null,
    "young_modulus_gpa": null,
    "poisson_ratio": null
  },
  "nuclear_properties": {
    "radioactive": false,
    "half_life": null,
    "decay_mode": null,
    "stable_isotopes": [
      133
    ],
    "isotopes": [
      {
        "mass_number": 133,
        "symbol": "133Cs",
        "name": null,
        "neutrons": 78,
        "abundance_percent": 100.0,
        "mass_u": 132.91,
        "half_life": "stable",
        "decay_mode": null,
        "spin": null
      }
    ]
  },
  "abundance": {
    "universe_percent": null,
    "solar_percent": null,
    "earth_crust_ppm": 3,
    "ocean_ppm": null,
    "human_body_percent": null
  },
  "discovery": {
    "year": 1860,
    "discoverers": [
      "Robert Bunsen",
      "Gustav Kirchhoff"
    ],
    "country": "Germany",
    "named_by": "Robert Bunsen",
    "name_origin": "Latin 'caesius' (sky blue)"
  },
  "applications": [
    "Atomic clocks (caesium-133 standard)",
    "Drilling fluids (CsHCOO)",
    "Photoelectric cells",
    "Ion propulsion (space)",
    "Radiation therapy (137Cs)"
  ],
  "hazards": {
    "ghs_pictograms": [
      "GHS02",
      "GHS05"
    ],
    "signal_word": "Danger",
    "nfpa_704": null,
    "hazard_statements": [],
    "autoignition_temp_k": 489,
    "flash_point_k": null,
    "explosive_limits_percent": null
  },
  "reactions": [
    {
      "id": "Cs-notable-001",
      "name": "Caesium in water",
      "equation": "2 Cs(s) + 2 H2O(l) -> 2 CsOH(aq) + H2(g)",
      "type": "single displacement",
      "category": "notable",
      "delta_h_kj": null,
      "conditions": "explosive; shatters glass container; Coulomb explosion (2015 Nature Chemistry)",
      "description": "Most violent alkali metal + water. Explodes instantly. 2015 study showed Coulomb explosion mechanism.",
      "reversible": false
    }
  ]
}
