{
  "name": "Lanthanum",
  "symbol": "La",
  "atomic_number": 57,
  "atomic_mass_u": 138.91,
  "atomic_mass_uncertainty_u": 0.01,
  "classification": {
    "group": null,
    "period": 6,
    "block": "f",
    "category": "lanthanide",
    "series": "lanthanide",
    "natural_occurrence": "primordial"
  },
  "atomic_structure": {
    "electron_configuration": "[Xe] 5d1 6s2",
    "electron_configuration_long": "1s2 2s2 2p6 3s2 3p6 3d10 4s2 4p6 4d10 5s2 5p6 5d1 6s2",
    "electron_shells": [
      2,
      8,
      18,
      18,
      9,
      2
    ],
    "valence_electrons": 3,
    "oxidation_states": [
      2,
      3
    ],
    "common_oxidation_states": [
      3
    ],
    "electronegativity_pauling": 1.1,
    "ionization_energies_kj_mol": [
      538.1
    ],
    "electron_affinity_kj_mol": 53.0,
    "atomic_radius_pm": null,
    "covalent_radius_pm": 207,
    "van_der_waals_radius_pm": null
  },
  "physical_properties": {
    "phase_at_stp": "solid",
    "melting_point_k": 1193.0,
    "boiling_point_k": 3737.0,
    "density_kg_m3": 6162.0,
    "density_liquid_kg_m3": null,
    "triple_point_k": null,
    "triple_point_kpa": null,
    "critical_point_k": null,
    "critical_point_mpa": null,
    "heat_of_fusion_kj_mol": 6.2,
    "heat_of_vaporization_kj_mol": 400.0,
    "molar_heat_capacity_j_mol_k": 27.11,
    "color": "silvery-white",
    "crystal_structure": "hexagonal close-packed",
    "magnetic_ordering": "paramagnetic",
    "speed_of_sound_m_s": 2475,
    "thermal_conductivity_w_m_k": 13.4,
    "thermal_expansion_per_k": null,
    "mohs_hardness": null,
    "bulk_modulus_gpa": null,
    "shear_modulus_gpa": null,
    "young_modulus_gpa": null,
    "poisson_ratio": null
  },
  "nuclear_properties": {
    "radioactive": false,
    "half_life": null,
    "decay_mode": null,
    "stable_isotopes": [
      138,
      139
    ],
    "isotopes": [
      {
        "mass_number": 139,
        "symbol": "139La",
        "name": null,
        "neutrons": 82,
        "abundance_percent": null,
        "mass_u": 138.91,
        "half_life": "stable",
        "decay_mode": null,
        "spin": null
      }
    ]
  },
  "abundance": {
    "universe_percent": null,
    "solar_percent": null,
    "earth_crust_ppm": 39,
    "ocean_ppm": null,
    "human_body_percent": null
  },
  "discovery": {
    "year": 1839,
    "discoverers": [
      "Carl Gustaf Mosander"
    ],
    "country": "Sweden",
    "named_by": "Carl Gustaf Mosander",
    "name_origin": "Greek 'lanthanein' (to lie hidden)"
  },
  "applications": [
    "Hybrid car batteries (NiMH with La alloys)",
    "Camera and telescope lenses",
    "Studio lighting (carbon arc)",
    "Hydrogen storage alloys"
  ],
  "hazards": {
    "ghs_pictograms": [],
    "signal_word": null,
    "nfpa_704": null,
    "hazard_statements": [],
    "autoignition_temp_k": null,
    "flash_point_k": null,
    "explosive_limits_percent": null
  },
  "reactions": []
}