{
  "name": "Cerium",
  "symbol": "Ce",
  "atomic_number": 58,
  "atomic_mass_u": 140.12,
  "atomic_mass_uncertainty_u": 0.01,
  "classification": {
    "group": null,
    "period": 6,
    "block": "f",
    "category": "lanthanide",
    "series": "lanthanide",
    "natural_occurrence": "primordial"
  },
  "atomic_structure": {
    "electron_configuration": "[Xe] 4f1 5d1 6s2",
    "electron_configuration_long": "1s2 2s2 2p6 3s2 3p6 3d10 4s2 4p6 4d10 5s2 5p6 4f1 5d1 6s2",
    "electron_shells": [
      2,
      8,
      18,
      19,
      9,
      2
    ],
    "valence_electrons": 4,
    "oxidation_states": [
      2,
      3,
      4
    ],
    "common_oxidation_states": [
      3,
      4
    ],
    "electronegativity_pauling": 1.12,
    "ionization_energies_kj_mol": [
      534.4
    ],
    "electron_affinity_kj_mol": 55.0,
    "atomic_radius_pm": null,
    "covalent_radius_pm": 204,
    "van_der_waals_radius_pm": null
  },
  "physical_properties": {
    "phase_at_stp": "solid",
    "melting_point_k": 1068.0,
    "boiling_point_k": 3716.0,
    "density_kg_m3": 6770.0,
    "density_liquid_kg_m3": null,
    "triple_point_k": null,
    "triple_point_kpa": null,
    "critical_point_k": null,
    "critical_point_mpa": null,
    "heat_of_fusion_kj_mol": 5.46,
    "heat_of_vaporization_kj_mol": 398.0,
    "molar_heat_capacity_j_mol_k": 26.94,
    "color": "silvery-white",
    "crystal_structure": "face-centered cubic",
    "magnetic_ordering": "paramagnetic",
    "speed_of_sound_m_s": 2100,
    "thermal_conductivity_w_m_k": 11.3,
    "thermal_expansion_per_k": null,
    "mohs_hardness": null,
    "bulk_modulus_gpa": null,
    "shear_modulus_gpa": null,
    "young_modulus_gpa": null,
    "poisson_ratio": null
  },
  "nuclear_properties": {
    "radioactive": false,
    "half_life": null,
    "decay_mode": null,
    "stable_isotopes": [
      136,
      138,
      140,
      142
    ],
    "isotopes": [
      {
        "mass_number": 140,
        "symbol": "140Ce",
        "name": null,
        "neutrons": 82,
        "abundance_percent": null,
        "mass_u": 140.12,
        "half_life": "stable",
        "decay_mode": null,
        "spin": null
      }
    ]
  },
  "abundance": {
    "universe_percent": null,
    "solar_percent": null,
    "earth_crust_ppm": 66.5,
    "ocean_ppm": null,
    "human_body_percent": null
  },
  "discovery": {
    "year": 1803,
    "discoverers": [
      "Jons Jacob Berzelius",
      "Wilhelm Hisinger"
    ],
    "country": "Sweden",
    "named_by": "Jons Jacob Berzelius",
    "name_origin": "Asteroid Ceres"
  },
  "applications": [
    "Catalytic converters",
    "Self-cleaning ovens (CeO2)",
    "Glass polishing",
    "Fuel cells (solid oxide)",
    "UV-absorbing glass"
  ],
  "hazards": {
    "ghs_pictograms": [],
    "signal_word": null,
    "nfpa_704": null,
    "hazard_statements": [],
    "autoignition_temp_k": null,
    "flash_point_k": null,
    "explosive_limits_percent": null
  },
  "reactions": []
}