{
  "name": "Praseodymium",
  "symbol": "Pr",
  "atomic_number": 59,
  "atomic_mass_u": 140.91,
  "atomic_mass_uncertainty_u": 0.01,
  "classification": {
    "group": null,
    "period": 6,
    "block": "f",
    "category": "lanthanide",
    "series": "lanthanide",
    "natural_occurrence": "primordial"
  },
  "atomic_structure": {
    "electron_configuration": "[Xe] 4f3 6s2",
    "electron_configuration_long": "1s2 2s2 2p6 3s2 3p6 3d10 4s2 4p6 4d10 5s2 5p6 4f3 6s2",
    "electron_shells": [
      2,
      8,
      18,
      21,
      8,
      2
    ],
    "valence_electrons": 5,
    "oxidation_states": [
      2,
      3,
      4
    ],
    "common_oxidation_states": [
      3
    ],
    "electronegativity_pauling": 1.13,
    "ionization_energies_kj_mol": [
      527.0
    ],
    "electron_affinity_kj_mol": 93.0,
    "atomic_radius_pm": null,
    "covalent_radius_pm": 203,
    "van_der_waals_radius_pm": null
  },
  "physical_properties": {
    "phase_at_stp": "solid",
    "melting_point_k": 1208.0,
    "boiling_point_k": 3403.0,
    "density_kg_m3": 6770.0,
    "density_liquid_kg_m3": null,
    "triple_point_k": null,
    "triple_point_kpa": null,
    "critical_point_k": null,
    "critical_point_mpa": null,
    "heat_of_fusion_kj_mol": 6.89,
    "heat_of_vaporization_kj_mol": 331.0,
    "molar_heat_capacity_j_mol_k": 27.2,
    "color": "greyish-white",
    "crystal_structure": "hexagonal close-packed",
    "magnetic_ordering": "paramagnetic",
    "speed_of_sound_m_s": 2280,
    "thermal_conductivity_w_m_k": 12.5,
    "thermal_expansion_per_k": null,
    "mohs_hardness": null,
    "bulk_modulus_gpa": null,
    "shear_modulus_gpa": null,
    "young_modulus_gpa": null,
    "poisson_ratio": null
  },
  "nuclear_properties": {
    "radioactive": false,
    "half_life": null,
    "decay_mode": null,
    "stable_isotopes": [
      141
    ],
    "isotopes": [
      {
        "mass_number": 141,
        "symbol": "141Pr",
        "name": null,
        "neutrons": 82,
        "abundance_percent": 100.0,
        "mass_u": 140.91,
        "half_life": "stable",
        "decay_mode": null,
        "spin": null
      }
    ]
  },
  "abundance": {
    "universe_percent": null,
    "solar_percent": null,
    "earth_crust_ppm": 9.2,
    "ocean_ppm": null,
    "human_body_percent": null
  },
  "discovery": {
    "year": 1885,
    "discoverers": [
      "Carl Auer von Welsbach"
    ],
    "country": "Austria",
    "named_by": "Carl Auer von Welsbach",
    "name_origin": "Greek 'prasinos + didymos' (green twin)"
  },
  "applications": [
    "Magnets (PrFeB alloys)",
    "Green glass/ceramic pigment",
    "Welder's goggles",
    "Carbon arc electrodes"
  ],
  "hazards": {
    "ghs_pictograms": [],
    "signal_word": null,
    "nfpa_704": null,
    "hazard_statements": [],
    "autoignition_temp_k": null,
    "flash_point_k": null,
    "explosive_limits_percent": null
  },
  "reactions": []
}