{
  "name": "Neodymium",
  "symbol": "Nd",
  "atomic_number": 60,
  "atomic_mass_u": 144.24,
  "atomic_mass_uncertainty_u": 0.01,
  "classification": {
    "group": null,
    "period": 6,
    "block": "f",
    "category": "lanthanide",
    "series": "lanthanide",
    "natural_occurrence": "primordial"
  },
  "atomic_structure": {
    "electron_configuration": "[Xe] 4f4 6s2",
    "electron_configuration_long": "1s2 2s2 2p6 3s2 3p6 3d10 4s2 4p6 4d10 5s2 5p6 4f4 6s2",
    "electron_shells": [
      2,
      8,
      18,
      22,
      8,
      2
    ],
    "valence_electrons": 6,
    "oxidation_states": [
      2,
      3
    ],
    "common_oxidation_states": [
      3
    ],
    "electronegativity_pauling": 1.14,
    "ionization_energies_kj_mol": [
      533.1
    ],
    "electron_affinity_kj_mol": 184.87,
    "atomic_radius_pm": null,
    "covalent_radius_pm": 201,
    "van_der_waals_radius_pm": null
  },
  "physical_properties": {
    "phase_at_stp": "solid",
    "melting_point_k": 1297.0,
    "boiling_point_k": 3347.0,
    "density_kg_m3": 7010.0,
    "density_liquid_kg_m3": null,
    "triple_point_k": null,
    "triple_point_kpa": null,
    "critical_point_k": null,
    "critical_point_mpa": null,
    "heat_of_fusion_kj_mol": 7.14,
    "heat_of_vaporization_kj_mol": 289.0,
    "molar_heat_capacity_j_mol_k": 27.45,
    "color": "silvery-white",
    "crystal_structure": "hexagonal close-packed",
    "magnetic_ordering": "antiferromagnetic",
    "speed_of_sound_m_s": 2330,
    "thermal_conductivity_w_m_k": 16.5,
    "thermal_expansion_per_k": null,
    "mohs_hardness": null,
    "bulk_modulus_gpa": null,
    "shear_modulus_gpa": null,
    "young_modulus_gpa": null,
    "poisson_ratio": null
  },
  "nuclear_properties": {
    "radioactive": false,
    "half_life": null,
    "decay_mode": null,
    "stable_isotopes": [
      142,
      143,
      144,
      145,
      146,
      148
    ],
    "isotopes": [
      {
        "mass_number": 144,
        "symbol": "144Nd",
        "name": null,
        "neutrons": 84,
        "abundance_percent": null,
        "mass_u": 144.24,
        "half_life": "stable",
        "decay_mode": null,
        "spin": null
      }
    ]
  },
  "abundance": {
    "universe_percent": null,
    "solar_percent": null,
    "earth_crust_ppm": 41.5,
    "ocean_ppm": null,
    "human_body_percent": null
  },
  "discovery": {
    "year": 1885,
    "discoverers": [
      "Carl Auer von Welsbach"
    ],
    "country": "Austria",
    "named_by": "Carl Auer von Welsbach",
    "name_origin": "Greek 'neos + didymos' (new twin)"
  },
  "applications": [
    "Neodymium magnets (Nd2Fe14B)",
    "Laser components (Nd:YAG)",
    "Glass coloring (violet)",
    "Hybrid vehicle motors"
  ],
  "hazards": {
    "ghs_pictograms": [],
    "signal_word": null,
    "nfpa_704": null,
    "hazard_statements": [],
    "autoignition_temp_k": null,
    "flash_point_k": null,
    "explosive_limits_percent": null
  },
  "reactions": []
}