{
  "name": "Promethium",
  "symbol": "Pm",
  "atomic_number": 61,
  "atomic_mass_u": 145.0,
  "atomic_mass_uncertainty_u": null,
  "classification": {
    "group": null,
    "period": 6,
    "block": "f",
    "category": "lanthanide",
    "series": "lanthanide",
    "natural_occurrence": "from decay"
  },
  "atomic_structure": {
    "electron_configuration": "[Xe] 4f5 6s2",
    "electron_configuration_long": "1s2 2s2 2p6 3s2 3p6 3d10 4s2 4p6 4d10 5s2 5p6 4f5 6s2",
    "electron_shells": [
      2,
      8,
      18,
      23,
      8,
      2
    ],
    "valence_electrons": 7,
    "oxidation_states": [
      2,
      3
    ],
    "common_oxidation_states": [
      3
    ],
    "electronegativity_pauling": 1.13,
    "ionization_energies_kj_mol": [
      540.0
    ],
    "electron_affinity_kj_mol": 12.45,
    "atomic_radius_pm": null,
    "covalent_radius_pm": 199,
    "van_der_waals_radius_pm": null
  },
  "physical_properties": {
    "phase_at_stp": "solid",
    "melting_point_k": 1315.0,
    "boiling_point_k": 3273.0,
    "density_kg_m3": 7260.0,
    "density_liquid_kg_m3": null,
    "triple_point_k": null,
    "triple_point_kpa": null,
    "critical_point_k": null,
    "critical_point_mpa": null,
    "heat_of_fusion_kj_mol": 7.13,
    "heat_of_vaporization_kj_mol": 289.0,
    "molar_heat_capacity_j_mol_k": 27.0,
    "color": "metallic",
    "crystal_structure": "hexagonal close-packed",
    "magnetic_ordering": "paramagnetic",
    "speed_of_sound_m_s": null,
    "thermal_conductivity_w_m_k": 17.9,
    "thermal_expansion_per_k": null,
    "mohs_hardness": null,
    "bulk_modulus_gpa": null,
    "shear_modulus_gpa": null,
    "young_modulus_gpa": null,
    "poisson_ratio": null
  },
  "nuclear_properties": {
    "radioactive": true,
    "half_life": "17.7 y",
    "decay_mode": "beta-minus/EC",
    "stable_isotopes": [],
    "isotopes": [
      {
        "mass_number": 145,
        "symbol": "145Pm",
        "name": null,
        "neutrons": 84,
        "abundance_percent": null,
        "mass_u": 145.0,
        "half_life": "17.7 y",
        "decay_mode": "beta-minus/EC",
        "spin": null
      }
    ]
  },
  "abundance": {
    "universe_percent": null,
    "solar_percent": null,
    "earth_crust_ppm": 2e-15,
    "ocean_ppm": null,
    "human_body_percent": null
  },
  "discovery": {
    "year": 1945,
    "discoverers": [
      "Jacob A. Marinsky",
      "Lawrence E. Glendenin",
      "Charles D. Coryell"
    ],
    "country": "United States",
    "named_by": null,
    "name_origin": "Greek 'Prometheus' (mythology)"
  },
  "applications": [
    "Nuclear batteries (radioisotope)",
    "Luminescent paint",
    "Thickness gauges"
  ],
  "hazards": {
    "ghs_pictograms": [],
    "signal_word": null,
    "nfpa_704": null,
    "hazard_statements": [],
    "autoignition_temp_k": null,
    "flash_point_k": null,
    "explosive_limits_percent": null
  },
  "reactions": []
}