{
  "name": "Samarium",
  "symbol": "Sm",
  "atomic_number": 62,
  "atomic_mass_u": 150.36,
  "atomic_mass_uncertainty_u": 0.01,
  "classification": {
    "group": null,
    "period": 6,
    "block": "f",
    "category": "lanthanide",
    "series": "lanthanide",
    "natural_occurrence": "primordial"
  },
  "atomic_structure": {
    "electron_configuration": "[Xe] 4f6 6s2",
    "electron_configuration_long": "1s2 2s2 2p6 3s2 3p6 3d10 4s2 4p6 4d10 5s2 5p6 4f6 6s2",
    "electron_shells": [
      2,
      8,
      18,
      24,
      8,
      2
    ],
    "valence_electrons": 8,
    "oxidation_states": [
      2,
      3
    ],
    "common_oxidation_states": [
      3
    ],
    "electronegativity_pauling": 1.17,
    "ionization_energies_kj_mol": [
      544.5
    ],
    "electron_affinity_kj_mol": 15.63,
    "atomic_radius_pm": null,
    "covalent_radius_pm": 198,
    "van_der_waals_radius_pm": null
  },
  "physical_properties": {
    "phase_at_stp": "solid",
    "melting_point_k": 1345.0,
    "boiling_point_k": 2067.0,
    "density_kg_m3": 7520.0,
    "density_liquid_kg_m3": null,
    "triple_point_k": null,
    "triple_point_kpa": null,
    "critical_point_k": null,
    "critical_point_mpa": null,
    "heat_of_fusion_kj_mol": 8.62,
    "heat_of_vaporization_kj_mol": 175.0,
    "molar_heat_capacity_j_mol_k": 29.54,
    "color": "silvery-white",
    "crystal_structure": "rhombohedral",
    "magnetic_ordering": "paramagnetic",
    "speed_of_sound_m_s": 2130,
    "thermal_conductivity_w_m_k": 13.3,
    "thermal_expansion_per_k": null,
    "mohs_hardness": null,
    "bulk_modulus_gpa": null,
    "shear_modulus_gpa": null,
    "young_modulus_gpa": null,
    "poisson_ratio": null
  },
  "nuclear_properties": {
    "radioactive": false,
    "half_life": null,
    "decay_mode": null,
    "stable_isotopes": [
      144,
      147,
      148,
      149,
      150,
      152,
      154
    ],
    "isotopes": [
      {
        "mass_number": 150,
        "symbol": "150Sm",
        "name": null,
        "neutrons": 88,
        "abundance_percent": null,
        "mass_u": 150.36,
        "half_life": "stable",
        "decay_mode": null,
        "spin": null
      }
    ]
  },
  "abundance": {
    "universe_percent": null,
    "solar_percent": null,
    "earth_crust_ppm": 7.05,
    "ocean_ppm": null,
    "human_body_percent": null
  },
  "discovery": {
    "year": 1879,
    "discoverers": [
      "Paul Emile Lecoq de Boisbaudran"
    ],
    "country": "France",
    "named_by": "Paul Emile Lecoq de Boisbaudran",
    "name_origin": "Vasili Samarsky-Bykhovets (mineral collector)"
  },
  "applications": [
    "Samarium-cobalt magnets (SmCo5)",
    "Nuclear reactor control rods",
    "Cancer treatment (153Sm)",
    "Infrared absorbing glass"
  ],
  "hazards": {
    "ghs_pictograms": [],
    "signal_word": null,
    "nfpa_704": null,
    "hazard_statements": [],
    "autoignition_temp_k": null,
    "flash_point_k": null,
    "explosive_limits_percent": null
  },
  "reactions": []
}