{
  "name": "Europium",
  "symbol": "Eu",
  "atomic_number": 63,
  "atomic_mass_u": 151.96,
  "atomic_mass_uncertainty_u": 0.01,
  "classification": {
    "group": null,
    "period": 6,
    "block": "f",
    "category": "lanthanide",
    "series": "lanthanide",
    "natural_occurrence": "primordial"
  },
  "atomic_structure": {
    "electron_configuration": "[Xe] 4f7 6s2",
    "electron_configuration_long": "1s2 2s2 2p6 3s2 3p6 3d10 4s2 4p6 4d10 5s2 5p6 4f7 6s2",
    "electron_shells": [
      2,
      8,
      18,
      25,
      8,
      2
    ],
    "valence_electrons": 9,
    "oxidation_states": [
      2,
      3
    ],
    "common_oxidation_states": [
      2,
      3
    ],
    "electronegativity_pauling": 1.2,
    "ionization_energies_kj_mol": [
      547.1
    ],
    "electron_affinity_kj_mol": 11.2,
    "atomic_radius_pm": null,
    "covalent_radius_pm": 198,
    "van_der_waals_radius_pm": null
  },
  "physical_properties": {
    "phase_at_stp": "solid",
    "melting_point_k": 1099.0,
    "boiling_point_k": 1802.0,
    "density_kg_m3": 5244.0,
    "density_liquid_kg_m3": null,
    "triple_point_k": null,
    "triple_point_kpa": null,
    "critical_point_k": null,
    "critical_point_mpa": null,
    "heat_of_fusion_kj_mol": 9.21,
    "heat_of_vaporization_kj_mol": 176.0,
    "molar_heat_capacity_j_mol_k": 27.66,
    "color": "silvery-white",
    "crystal_structure": "body-centered cubic",
    "magnetic_ordering": "paramagnetic",
    "speed_of_sound_m_s": 1900,
    "thermal_conductivity_w_m_k": 13.9,
    "thermal_expansion_per_k": null,
    "mohs_hardness": null,
    "bulk_modulus_gpa": null,
    "shear_modulus_gpa": null,
    "young_modulus_gpa": null,
    "poisson_ratio": null
  },
  "nuclear_properties": {
    "radioactive": false,
    "half_life": null,
    "decay_mode": null,
    "stable_isotopes": [
      151,
      153
    ],
    "isotopes": [
      {
        "mass_number": 152,
        "symbol": "152Eu",
        "name": null,
        "neutrons": 89,
        "abundance_percent": null,
        "mass_u": 151.96,
        "half_life": "stable",
        "decay_mode": null,
        "spin": null
      }
    ]
  },
  "abundance": {
    "universe_percent": null,
    "solar_percent": null,
    "earth_crust_ppm": 2,
    "ocean_ppm": null,
    "human_body_percent": null
  },
  "discovery": {
    "year": 1901,
    "discoverers": [
      "Eugene-Anatole Demarcay"
    ],
    "country": "France",
    "named_by": "Eugene-Anatole Demarcay",
    "name_origin": "Continent of Europe"
  },
  "applications": [
    "Phosphors (red TV/LED)",
    "Nuclear reactor control rods",
    "Euro banknote anti-forgery"
  ],
  "hazards": {
    "ghs_pictograms": [],
    "signal_word": null,
    "nfpa_704": null,
    "hazard_statements": [],
    "autoignition_temp_k": null,
    "flash_point_k": null,
    "explosive_limits_percent": null
  },
  "reactions": []
}