{
  "name": "Gadolinium",
  "symbol": "Gd",
  "atomic_number": 64,
  "atomic_mass_u": 157.25,
  "atomic_mass_uncertainty_u": 0.01,
  "classification": {
    "group": null,
    "period": 6,
    "block": "f",
    "category": "lanthanide",
    "series": "lanthanide",
    "natural_occurrence": "primordial"
  },
  "atomic_structure": {
    "electron_configuration": "[Xe] 4f7 5d1 6s2",
    "electron_configuration_long": "1s2 2s2 2p6 3s2 3p6 3d10 4s2 4p6 4d10 5s2 5p6 4f7 5d1 6s2",
    "electron_shells": [
      2,
      8,
      18,
      25,
      9,
      2
    ],
    "valence_electrons": 10,
    "oxidation_states": [
      1,
      2,
      3
    ],
    "common_oxidation_states": [
      3
    ],
    "electronegativity_pauling": 1.2,
    "ionization_energies_kj_mol": [
      593.4
    ],
    "electron_affinity_kj_mol": 13.22,
    "atomic_radius_pm": null,
    "covalent_radius_pm": 196,
    "van_der_waals_radius_pm": null
  },
  "physical_properties": {
    "phase_at_stp": "solid",
    "melting_point_k": 1585.0,
    "boiling_point_k": 3546.0,
    "density_kg_m3": 7900.0,
    "density_liquid_kg_m3": null,
    "triple_point_k": null,
    "triple_point_kpa": null,
    "critical_point_k": null,
    "critical_point_mpa": null,
    "heat_of_fusion_kj_mol": 10.05,
    "heat_of_vaporization_kj_mol": 301.3,
    "molar_heat_capacity_j_mol_k": 37.03,
    "color": "silvery-white",
    "crystal_structure": "hexagonal close-packed",
    "magnetic_ordering": "ferromagnetic",
    "speed_of_sound_m_s": 2680,
    "thermal_conductivity_w_m_k": 10.6,
    "thermal_expansion_per_k": null,
    "mohs_hardness": null,
    "bulk_modulus_gpa": null,
    "shear_modulus_gpa": null,
    "young_modulus_gpa": null,
    "poisson_ratio": null
  },
  "nuclear_properties": {
    "radioactive": false,
    "half_life": null,
    "decay_mode": null,
    "stable_isotopes": [
      152,
      154,
      155,
      156,
      157,
      158,
      160
    ],
    "isotopes": [
      {
        "mass_number": 157,
        "symbol": "157Gd",
        "name": null,
        "neutrons": 93,
        "abundance_percent": null,
        "mass_u": 157.25,
        "half_life": "stable",
        "decay_mode": null,
        "spin": null
      }
    ]
  },
  "abundance": {
    "universe_percent": null,
    "solar_percent": null,
    "earth_crust_ppm": 6.2,
    "ocean_ppm": null,
    "human_body_percent": null
  },
  "discovery": {
    "year": 1880,
    "discoverers": [
      "Jean Charles Galissard de Marignac"
    ],
    "country": "Switzerland",
    "named_by": "Jean Charles Galissard de Marignac",
    "name_origin": "Johan Gadolin (chemist)"
  },
  "applications": [
    "MRI contrast agents (gadolinium-based)",
    "Neutron capture therapy",
    "Data storage (magneto-optical)",
    "Nuclear reactor shielding"
  ],
  "hazards": {
    "ghs_pictograms": [],
    "signal_word": null,
    "nfpa_704": null,
    "hazard_statements": [],
    "autoignition_temp_k": null,
    "flash_point_k": null,
    "explosive_limits_percent": null
  },
  "reactions": []
}