{
  "name": "Erbium",
  "symbol": "Er",
  "atomic_number": 68,
  "atomic_mass_u": 167.26,
  "atomic_mass_uncertainty_u": 0.01,
  "classification": {
    "group": null,
    "period": 6,
    "block": "f",
    "category": "lanthanide",
    "series": "lanthanide",
    "natural_occurrence": "primordial"
  },
  "atomic_structure": {
    "electron_configuration": "[Xe] 4f12 6s2",
    "electron_configuration_long": "1s2 2s2 2p6 3s2 3p6 3d10 4s2 4p6 4d10 5s2 5p6 4f12 6s2",
    "electron_shells": [
      2,
      8,
      18,
      30,
      8,
      2
    ],
    "valence_electrons": 14,
    "oxidation_states": [
      2,
      3
    ],
    "common_oxidation_states": [
      3
    ],
    "electronegativity_pauling": 1.24,
    "ionization_energies_kj_mol": [
      589.3
    ],
    "electron_affinity_kj_mol": 30.1,
    "atomic_radius_pm": null,
    "covalent_radius_pm": 189,
    "van_der_waals_radius_pm": null
  },
  "physical_properties": {
    "phase_at_stp": "solid",
    "melting_point_k": 1802.0,
    "boiling_point_k": 3141.0,
    "density_kg_m3": 9066.0,
    "density_liquid_kg_m3": null,
    "triple_point_k": null,
    "triple_point_kpa": null,
    "critical_point_k": null,
    "critical_point_mpa": null,
    "heat_of_fusion_kj_mol": 19.9,
    "heat_of_vaporization_kj_mol": 280.0,
    "molar_heat_capacity_j_mol_k": 28.12,
    "color": "silvery-white",
    "crystal_structure": "hexagonal close-packed",
    "magnetic_ordering": "paramagnetic",
    "speed_of_sound_m_s": 2830,
    "thermal_conductivity_w_m_k": 14.5,
    "thermal_expansion_per_k": null,
    "mohs_hardness": null,
    "bulk_modulus_gpa": null,
    "shear_modulus_gpa": null,
    "young_modulus_gpa": null,
    "poisson_ratio": null
  },
  "nuclear_properties": {
    "radioactive": false,
    "half_life": null,
    "decay_mode": null,
    "stable_isotopes": [
      162,
      164,
      166,
      167,
      168,
      170
    ],
    "isotopes": [
      {
        "mass_number": 167,
        "symbol": "167Er",
        "name": null,
        "neutrons": 99,
        "abundance_percent": null,
        "mass_u": 167.26,
        "half_life": "stable",
        "decay_mode": null,
        "spin": null
      }
    ]
  },
  "abundance": {
    "universe_percent": null,
    "solar_percent": null,
    "earth_crust_ppm": 3.5,
    "ocean_ppm": null,
    "human_body_percent": null
  },
  "discovery": {
    "year": 1843,
    "discoverers": [
      "Carl Gustaf Mosander"
    ],
    "country": "Sweden",
    "named_by": "Carl Gustaf Mosander",
    "name_origin": "Ytterby, Sweden"
  },
  "applications": [
    "Erbium-doped fiber amplifiers (EDFA)",
    "Pink glass/ceramic colorant",
    "Photographic filters",
    "Medical lasers (Er:YAG)"
  ],
  "hazards": {
    "ghs_pictograms": [],
    "signal_word": null,
    "nfpa_704": null,
    "hazard_statements": [],
    "autoignition_temp_k": null,
    "flash_point_k": null,
    "explosive_limits_percent": null
  },
  "reactions": []
}