{
  "name": "Ytterbium",
  "symbol": "Yb",
  "atomic_number": 70,
  "atomic_mass_u": 173.05,
  "atomic_mass_uncertainty_u": 0.01,
  "classification": {
    "group": null,
    "period": 6,
    "block": "f",
    "category": "lanthanide",
    "series": "lanthanide",
    "natural_occurrence": "primordial"
  },
  "atomic_structure": {
    "electron_configuration": "[Xe] 4f14 6s2",
    "electron_configuration_long": "1s2 2s2 2p6 3s2 3p6 3d10 4s2 4p6 4d10 5s2 5p6 4f14 6s2",
    "electron_shells": [
      2,
      8,
      18,
      32,
      8,
      2
    ],
    "valence_electrons": 16,
    "oxidation_states": [
      2,
      3
    ],
    "common_oxidation_states": [
      3
    ],
    "electronegativity_pauling": 1.1,
    "ionization_energies_kj_mol": [
      603.4
    ],
    "electron_affinity_kj_mol": -1.93,
    "atomic_radius_pm": null,
    "covalent_radius_pm": 187,
    "van_der_waals_radius_pm": null
  },
  "physical_properties": {
    "phase_at_stp": "solid",
    "melting_point_k": 1097.0,
    "boiling_point_k": 1469.0,
    "density_kg_m3": 6965.0,
    "density_liquid_kg_m3": null,
    "triple_point_k": null,
    "triple_point_kpa": null,
    "critical_point_k": null,
    "critical_point_mpa": null,
    "heat_of_fusion_kj_mol": 7.66,
    "heat_of_vaporization_kj_mol": 129.0,
    "molar_heat_capacity_j_mol_k": 26.74,
    "color": "silvery-white",
    "crystal_structure": "face-centered cubic",
    "magnetic_ordering": "paramagnetic",
    "speed_of_sound_m_s": 1590,
    "thermal_conductivity_w_m_k": 38.5,
    "thermal_expansion_per_k": null,
    "mohs_hardness": null,
    "bulk_modulus_gpa": null,
    "shear_modulus_gpa": null,
    "young_modulus_gpa": null,
    "poisson_ratio": null
  },
  "nuclear_properties": {
    "radioactive": false,
    "half_life": null,
    "decay_mode": null,
    "stable_isotopes": [
      168,
      170,
      171,
      172,
      173,
      174,
      176
    ],
    "isotopes": [
      {
        "mass_number": 173,
        "symbol": "173Yb",
        "name": null,
        "neutrons": 103,
        "abundance_percent": null,
        "mass_u": 173.05,
        "half_life": "stable",
        "decay_mode": null,
        "spin": null
      }
    ]
  },
  "abundance": {
    "universe_percent": null,
    "solar_percent": null,
    "earth_crust_ppm": 3.2,
    "ocean_ppm": null,
    "human_body_percent": null
  },
  "discovery": {
    "year": 1878,
    "discoverers": [
      "Jean Charles Galissard de Marignac"
    ],
    "country": "Switzerland",
    "named_by": "Jean Charles Galissard de Marignac",
    "name_origin": "Ytterby, Sweden"
  },
  "applications": [
    "Stress gauges (piezoresistive)",
    "Strengthening stainless steel",
    "Laser materials"
  ],
  "hazards": {
    "ghs_pictograms": [],
    "signal_word": null,
    "nfpa_704": null,
    "hazard_statements": [],
    "autoignition_temp_k": null,
    "flash_point_k": null,
    "explosive_limits_percent": null
  },
  "reactions": []
}