{
  "name": "Lutetium",
  "symbol": "Lu",
  "atomic_number": 71,
  "atomic_mass_u": 174.97,
  "atomic_mass_uncertainty_u": 0.01,
  "classification": {
    "group": 3,
    "period": 6,
    "block": "d",
    "category": "lanthanide",
    "series": "lanthanide",
    "natural_occurrence": "primordial"
  },
  "atomic_structure": {
    "electron_configuration": "[Xe] 4f14 5d1 6s2",
    "electron_configuration_long": "1s2 2s2 2p6 3s2 3p6 3d10 4s2 4p6 4d10 5s2 5p6 4f14 5d1 6s2",
    "electron_shells": [
      2,
      8,
      18,
      32,
      9,
      2
    ],
    "valence_electrons": 3,
    "oxidation_states": [
      2,
      3
    ],
    "common_oxidation_states": [
      3
    ],
    "electronegativity_pauling": 1.27,
    "ionization_energies_kj_mol": [
      523.5
    ],
    "electron_affinity_kj_mol": 33.4,
    "atomic_radius_pm": 217,
    "covalent_radius_pm": 187,
    "van_der_waals_radius_pm": null
  },
  "physical_properties": {
    "phase_at_stp": "solid",
    "melting_point_k": 1925.0,
    "boiling_point_k": 3675.0,
    "density_kg_m3": 9841.0,
    "density_liquid_kg_m3": null,
    "triple_point_k": null,
    "triple_point_kpa": null,
    "critical_point_k": null,
    "critical_point_mpa": null,
    "heat_of_fusion_kj_mol": 22.0,
    "heat_of_vaporization_kj_mol": 414.0,
    "molar_heat_capacity_j_mol_k": 26.86,
    "color": "silvery-white",
    "crystal_structure": "hexagonal close-packed",
    "magnetic_ordering": "paramagnetic",
    "speed_of_sound_m_s": null,
    "thermal_conductivity_w_m_k": 16.4,
    "thermal_expansion_per_k": null,
    "mohs_hardness": null,
    "bulk_modulus_gpa": null,
    "shear_modulus_gpa": null,
    "young_modulus_gpa": null,
    "poisson_ratio": null
  },
  "nuclear_properties": {
    "radioactive": false,
    "half_life": null,
    "decay_mode": null,
    "stable_isotopes": [
      175,
      176
    ],
    "isotopes": [
      {
        "mass_number": 175,
        "symbol": "175Lu",
        "name": null,
        "neutrons": 104,
        "abundance_percent": null,
        "mass_u": 174.97,
        "half_life": "stable",
        "decay_mode": null,
        "spin": null
      }
    ]
  },
  "abundance": {
    "universe_percent": null,
    "solar_percent": null,
    "earth_crust_ppm": 0.8,
    "ocean_ppm": null,
    "human_body_percent": null
  },
  "discovery": {
    "year": 1907,
    "discoverers": [
      "Georges Urbain",
      "Carl Auer von Welsbach"
    ],
    "country": "France/Austria",
    "named_by": "Georges Urbain",
    "name_origin": "Latin 'Lutetia' (Paris)"
  },
  "applications": [
    "PET scan detectors (Lu2SiO5)",
    "LED phosphors",
    "Catalysts (petroleum cracking)",
    "High-density scintillators"
  ],
  "hazards": {
    "ghs_pictograms": [],
    "signal_word": null,
    "nfpa_704": null,
    "hazard_statements": [],
    "autoignition_temp_k": null,
    "flash_point_k": null,
    "explosive_limits_percent": null
  },
  "reactions": []
}