{
  "name": "Hafnium",
  "symbol": "Hf",
  "atomic_number": 72,
  "atomic_mass_u": 178.49,
  "atomic_mass_uncertainty_u": 0.02,
  "classification": {
    "group": 4,
    "period": 6,
    "block": "d",
    "category": "transition metal",
    "series": "transition metal",
    "natural_occurrence": "primordial"
  },
  "atomic_structure": {
    "electron_configuration": "[Xe] 4f14 5d2 6s2",
    "electron_configuration_long": "1s2 2s2 2p6 3s2 3p6 3d10 4s2 4p6 4d10 5s2 5p6 4f14 5d2 6s2",
    "electron_shells": [
      2,
      8,
      18,
      32,
      10,
      2
    ],
    "valence_electrons": 4,
    "oxidation_states": [
      2,
      3,
      4
    ],
    "common_oxidation_states": [
      4
    ],
    "electronegativity_pauling": 1.3,
    "ionization_energies_kj_mol": [
      658.5
    ],
    "electron_affinity_kj_mol": 17.18,
    "atomic_radius_pm": 208,
    "covalent_radius_pm": 175,
    "van_der_waals_radius_pm": null
  },
  "physical_properties": {
    "phase_at_stp": "solid",
    "melting_point_k": 2506.0,
    "boiling_point_k": 4876.0,
    "density_kg_m3": 13310.0,
    "density_liquid_kg_m3": null,
    "triple_point_k": null,
    "triple_point_kpa": null,
    "critical_point_k": null,
    "critical_point_mpa": null,
    "heat_of_fusion_kj_mol": 27.2,
    "heat_of_vaporization_kj_mol": 648.0,
    "molar_heat_capacity_j_mol_k": 25.73,
    "color": "steel grey",
    "crystal_structure": "hexagonal close-packed",
    "magnetic_ordering": "paramagnetic",
    "speed_of_sound_m_s": 3010,
    "thermal_conductivity_w_m_k": 23.0,
    "thermal_expansion_per_k": 5.9e-06,
    "mohs_hardness": 5.5,
    "bulk_modulus_gpa": 110,
    "shear_modulus_gpa": 30,
    "young_modulus_gpa": 78,
    "poisson_ratio": null
  },
  "nuclear_properties": {
    "radioactive": false,
    "half_life": null,
    "decay_mode": null,
    "stable_isotopes": [
      174,
      176,
      177,
      178,
      179,
      180
    ],
    "isotopes": [
      {
        "mass_number": 178,
        "symbol": "178Hf",
        "name": null,
        "neutrons": 106,
        "abundance_percent": null,
        "mass_u": 178.49,
        "half_life": "stable",
        "decay_mode": null,
        "spin": null
      }
    ]
  },
  "abundance": {
    "universe_percent": null,
    "solar_percent": null,
    "earth_crust_ppm": 3,
    "ocean_ppm": null,
    "human_body_percent": null
  },
  "discovery": {
    "year": 1923,
    "discoverers": [
      "Dirk Coster",
      "George de Hevesy"
    ],
    "country": "Denmark",
    "named_by": "Dirk Coster",
    "name_origin": "Latin 'Hafnia' (Copenhagen)"
  },
  "applications": [
    "Nuclear reactor control rods (Hf has high neutron absorption)",
    "Superalloys (jet engines)",
    "Plasma cutting tips",
    "CPU gate insulators (HfO2)"
  ],
  "hazards": {
    "ghs_pictograms": [],
    "signal_word": null,
    "nfpa_704": null,
    "hazard_statements": [],
    "autoignition_temp_k": null,
    "flash_point_k": null,
    "explosive_limits_percent": null
  },
  "reactions": []
}