{
  "name": "Tantalum",
  "symbol": "Ta",
  "atomic_number": 73,
  "atomic_mass_u": 180.95,
  "atomic_mass_uncertainty_u": 0.01,
  "classification": {
    "group": 5,
    "period": 6,
    "block": "d",
    "category": "transition metal",
    "series": "transition metal",
    "natural_occurrence": "primordial"
  },
  "atomic_structure": {
    "electron_configuration": "[Xe] 4f14 5d3 6s2",
    "electron_configuration_long": "1s2 2s2 2p6 3s2 3p6 3d10 4s2 4p6 4d10 5s2 5p6 4f14 5d3 6s2",
    "electron_shells": [
      2,
      8,
      18,
      32,
      11,
      2
    ],
    "valence_electrons": 5,
    "oxidation_states": [
      -3,
      -1,
      1,
      2,
      3,
      4,
      5
    ],
    "common_oxidation_states": [
      5
    ],
    "electronegativity_pauling": 1.5,
    "ionization_energies_kj_mol": [
      761.0
    ],
    "electron_affinity_kj_mol": 31.0,
    "atomic_radius_pm": 200,
    "covalent_radius_pm": 170,
    "van_der_waals_radius_pm": null
  },
  "physical_properties": {
    "phase_at_stp": "solid",
    "melting_point_k": 3290.0,
    "boiling_point_k": 5731.0,
    "density_kg_m3": 16654.0,
    "density_liquid_kg_m3": null,
    "triple_point_k": null,
    "triple_point_kpa": null,
    "critical_point_k": null,
    "critical_point_mpa": null,
    "heat_of_fusion_kj_mol": 36.57,
    "heat_of_vaporization_kj_mol": 732.8,
    "molar_heat_capacity_j_mol_k": 25.36,
    "color": "blue-grey",
    "crystal_structure": "body-centered cubic",
    "magnetic_ordering": "paramagnetic",
    "speed_of_sound_m_s": 3400,
    "thermal_conductivity_w_m_k": 57.5,
    "thermal_expansion_per_k": 6.3e-06,
    "mohs_hardness": 6.5,
    "bulk_modulus_gpa": 200,
    "shear_modulus_gpa": 69,
    "young_modulus_gpa": 186,
    "poisson_ratio": 0.34
  },
  "nuclear_properties": {
    "radioactive": false,
    "half_life": null,
    "decay_mode": null,
    "stable_isotopes": [
      180,
      181
    ],
    "isotopes": [
      {
        "mass_number": 181,
        "symbol": "181Ta",
        "name": null,
        "neutrons": 108,
        "abundance_percent": null,
        "mass_u": 180.95,
        "half_life": "stable",
        "decay_mode": null,
        "spin": null
      }
    ]
  },
  "abundance": {
    "universe_percent": null,
    "solar_percent": null,
    "earth_crust_ppm": 2,
    "ocean_ppm": null,
    "human_body_percent": null
  },
  "discovery": {
    "year": 1802,
    "discoverers": [
      "Anders Gustaf Ekeberg"
    ],
    "country": "Sweden",
    "named_by": "Anders Gustaf Ekeberg",
    "name_origin": "Greek 'Tantalos' (mythology)"
  },
  "applications": [
    "Capacitors (tantalum capacitors in electronics)",
    "Surgical instruments",
    "Chemical process equipment",
    "Jet engine components",
    "Mobile phone capacitors"
  ],
  "hazards": {
    "ghs_pictograms": [],
    "signal_word": null,
    "nfpa_704": null,
    "hazard_statements": [],
    "autoignition_temp_k": null,
    "flash_point_k": null,
    "explosive_limits_percent": null
  },
  "reactions": []
}