{
  "name": "Tungsten",
  "symbol": "W",
  "atomic_number": 74,
  "atomic_mass_u": 183.84,
  "atomic_mass_uncertainty_u": 0.01,
  "classification": {
    "group": 6,
    "period": 6,
    "block": "d",
    "category": "transition metal",
    "series": "transition metal",
    "natural_occurrence": "primordial"
  },
  "atomic_structure": {
    "electron_configuration": "[Xe] 4f14 5d4 6s2",
    "electron_configuration_long": "1s2 2s2 2p6 3s2 3p6 3d10 4s2 4p6 4d10 5s2 5p6 4f14 5d4 6s2",
    "electron_shells": [
      2,
      8,
      18,
      32,
      12,
      2
    ],
    "valence_electrons": 6,
    "oxidation_states": [
      -4,
      -2,
      -1,
      1,
      2,
      3,
      4,
      5,
      6
    ],
    "common_oxidation_states": [
      4,
      6
    ],
    "electronegativity_pauling": 2.36,
    "ionization_energies_kj_mol": [
      770.0
    ],
    "electron_affinity_kj_mol": 78.76,
    "atomic_radius_pm": 193,
    "covalent_radius_pm": 162,
    "van_der_waals_radius_pm": null
  },
  "physical_properties": {
    "phase_at_stp": "solid",
    "melting_point_k": 3695.0,
    "boiling_point_k": 5828.0,
    "density_kg_m3": 19250.0,
    "density_liquid_kg_m3": null,
    "triple_point_k": null,
    "triple_point_kpa": null,
    "critical_point_k": null,
    "critical_point_mpa": null,
    "heat_of_fusion_kj_mol": 52.31,
    "heat_of_vaporization_kj_mol": 806.7,
    "molar_heat_capacity_j_mol_k": 24.27,
    "color": "greyish-white",
    "crystal_structure": "body-centered cubic",
    "magnetic_ordering": "paramagnetic",
    "speed_of_sound_m_s": 5220,
    "thermal_conductivity_w_m_k": 173.0,
    "thermal_expansion_per_k": 4.5e-06,
    "mohs_hardness": 7.5,
    "bulk_modulus_gpa": 310,
    "shear_modulus_gpa": 161,
    "young_modulus_gpa": 411,
    "poisson_ratio": 0.28
  },
  "nuclear_properties": {
    "radioactive": false,
    "half_life": null,
    "decay_mode": null,
    "stable_isotopes": [
      180,
      182,
      183,
      184,
      186
    ],
    "isotopes": [
      {
        "mass_number": 184,
        "symbol": "184W",
        "name": null,
        "neutrons": 110,
        "abundance_percent": null,
        "mass_u": 183.84,
        "half_life": "stable",
        "decay_mode": null,
        "spin": null
      }
    ]
  },
  "abundance": {
    "universe_percent": null,
    "solar_percent": null,
    "earth_crust_ppm": 1.3,
    "ocean_ppm": null,
    "human_body_percent": null
  },
  "discovery": {
    "year": 1783,
    "discoverers": [
      "Juan Jose Elhuyar",
      "Fausto Elhuyar"
    ],
    "country": "Spain",
    "named_by": null,
    "name_origin": "Swedish 'tung sten' (heavy stone)"
  },
  "applications": [
    "Cutting tools (tungsten carbide, WC)",
    "Light bulb filaments",
    "Welding electrodes",
    "Ammunition (armor-piercing)",
    "X-ray tubes (target)",
    "Heating elements",
    "Darts (high-density tips)",
    "Radiation shielding"
  ],
  "hazards": {
    "ghs_pictograms": [
      "GHS02"
    ],
    "signal_word": null,
    "nfpa_704": null,
    "hazard_statements": [],
    "autoignition_temp_k": null,
    "flash_point_k": null,
    "explosive_limits_percent": null
  },
  "reactions": [
    {
      "id": "W-notable-001",
      "name": "Tungsten highest melting point metal",
      "equation": "WO3(s) + 3 H2(g) -> W(s) + 3 H2O(g)",
      "type": "reduction",
      "category": "notable",
      "delta_h_kj": 117.3,
      "conditions": "1073 K; hydrogen reduction of tungsten trioxide; used for light bulb filaments",
      "description": "Production of tungsten metal. Highest melting point of any element (3695K). Used in light bulb filaments.",
      "reversible": false
    }
  ]
}
