{
  "name": "Rhenium",
  "symbol": "Re",
  "atomic_number": 75,
  "atomic_mass_u": 186.21,
  "atomic_mass_uncertainty_u": 0.01,
  "classification": {
    "group": 7,
    "period": 6,
    "block": "d",
    "category": "transition metal",
    "series": "transition metal",
    "natural_occurrence": "primordial"
  },
  "atomic_structure": {
    "electron_configuration": "[Xe] 4f14 5d5 6s2",
    "electron_configuration_long": "1s2 2s2 2p6 3s2 3p6 3d10 4s2 4p6 4d10 5s2 5p6 4f14 5d5 6s2",
    "electron_shells": [
      2,
      8,
      18,
      32,
      13,
      2
    ],
    "valence_electrons": 7,
    "oxidation_states": [
      -3,
      -1,
      1,
      2,
      3,
      4,
      5,
      6,
      7
    ],
    "common_oxidation_states": [
      4,
      7
    ],
    "electronegativity_pauling": 1.9,
    "ionization_energies_kj_mol": [
      760.0
    ],
    "electron_affinity_kj_mol": 5.8,
    "atomic_radius_pm": 188,
    "covalent_radius_pm": 151,
    "van_der_waals_radius_pm": null
  },
  "physical_properties": {
    "phase_at_stp": "solid",
    "melting_point_k": 3459.0,
    "boiling_point_k": 5869.0,
    "density_kg_m3": 21020.0,
    "density_liquid_kg_m3": null,
    "triple_point_k": null,
    "triple_point_kpa": null,
    "critical_point_k": null,
    "critical_point_mpa": null,
    "heat_of_fusion_kj_mol": 60.43,
    "heat_of_vaporization_kj_mol": 704.0,
    "molar_heat_capacity_j_mol_k": 25.48,
    "color": "silvery-grey",
    "crystal_structure": "hexagonal close-packed",
    "magnetic_ordering": "paramagnetic",
    "speed_of_sound_m_s": 4700,
    "thermal_conductivity_w_m_k": 48.0,
    "thermal_expansion_per_k": 6.2e-06,
    "mohs_hardness": 7.0,
    "bulk_modulus_gpa": 370,
    "shear_modulus_gpa": 178,
    "young_modulus_gpa": 463,
    "poisson_ratio": 0.3
  },
  "nuclear_properties": {
    "radioactive": false,
    "half_life": null,
    "decay_mode": null,
    "stable_isotopes": [
      185,
      187
    ],
    "isotopes": [
      {
        "mass_number": 186,
        "symbol": "186Re",
        "name": null,
        "neutrons": 111,
        "abundance_percent": null,
        "mass_u": 186.21,
        "half_life": "stable",
        "decay_mode": null,
        "spin": null
      }
    ]
  },
  "abundance": {
    "universe_percent": null,
    "solar_percent": null,
    "earth_crust_ppm": 0.0007,
    "ocean_ppm": null,
    "human_body_percent": null
  },
  "discovery": {
    "year": 1925,
    "discoverers": [
      "Walter Noddack",
      "Ida Noddack",
      "Otto Berg"
    ],
    "country": "Germany",
    "named_by": "Walter Noddack",
    "name_origin": "Latin 'Rhenus' (Rhine)"
  },
  "applications": [
    "Jet engine superalloys",
    "Catalysts (petroleum reforming)",
    "Thermocouples",
    "Electrical contacts",
    "Mass spectrometer filaments"
  ],
  "hazards": {
    "ghs_pictograms": [
      "GHS07"
    ],
    "signal_word": null,
    "nfpa_704": null,
    "hazard_statements": [],
    "autoignition_temp_k": null,
    "flash_point_k": null,
    "explosive_limits_percent": null
  },
  "reactions": []
}