{
  "name": "Osmium",
  "symbol": "Os",
  "atomic_number": 76,
  "atomic_mass_u": 190.23,
  "atomic_mass_uncertainty_u": 0.03,
  "classification": {
    "group": 8,
    "period": 6,
    "block": "d",
    "category": "transition metal",
    "series": "transition metal",
    "natural_occurrence": "primordial"
  },
  "atomic_structure": {
    "electron_configuration": "[Xe] 4f14 5d6 6s2",
    "electron_configuration_long": "1s2 2s2 2p6 3s2 3p6 3d10 4s2 4p6 4d10 5s2 5p6 4f14 5d6 6s2",
    "electron_shells": [
      2,
      8,
      18,
      32,
      14,
      2
    ],
    "valence_electrons": 8,
    "oxidation_states": [
      -4,
      -2,
      -1,
      1,
      2,
      3,
      4,
      5,
      6,
      7,
      8
    ],
    "common_oxidation_states": [
      4,
      8
    ],
    "electronegativity_pauling": 2.2,
    "ionization_energies_kj_mol": [
      840.0
    ],
    "electron_affinity_kj_mol": 103.99,
    "atomic_radius_pm": 185,
    "covalent_radius_pm": 144,
    "van_der_waals_radius_pm": null
  },
  "physical_properties": {
    "phase_at_stp": "solid",
    "melting_point_k": 3306.0,
    "boiling_point_k": 5285.0,
    "density_kg_m3": 22590.0,
    "density_liquid_kg_m3": null,
    "triple_point_k": null,
    "triple_point_kpa": null,
    "critical_point_k": null,
    "critical_point_mpa": null,
    "heat_of_fusion_kj_mol": 57.85,
    "heat_of_vaporization_kj_mol": 678.0,
    "molar_heat_capacity_j_mol_k": 24.7,
    "color": "silvery-blue",
    "crystal_structure": "hexagonal close-packed",
    "magnetic_ordering": "paramagnetic",
    "speed_of_sound_m_s": 4940,
    "thermal_conductivity_w_m_k": 87.6,
    "thermal_expansion_per_k": 5.1e-06,
    "mohs_hardness": 7.0,
    "bulk_modulus_gpa": 462,
    "shear_modulus_gpa": 222,
    "young_modulus_gpa": 550,
    "poisson_ratio": 0.25
  },
  "nuclear_properties": {
    "radioactive": false,
    "half_life": null,
    "decay_mode": null,
    "stable_isotopes": [
      184,
      186,
      187,
      188,
      189,
      190,
      192
    ],
    "isotopes": [
      {
        "mass_number": 190,
        "symbol": "190Os",
        "name": null,
        "neutrons": 114,
        "abundance_percent": null,
        "mass_u": 190.23,
        "half_life": "stable",
        "decay_mode": null,
        "spin": null
      }
    ]
  },
  "abundance": {
    "universe_percent": null,
    "solar_percent": null,
    "earth_crust_ppm": 0.002,
    "ocean_ppm": null,
    "human_body_percent": null
  },
  "discovery": {
    "year": 1803,
    "discoverers": [
      "Smithson Tennant"
    ],
    "country": "England",
    "named_by": "Smithson Tennant",
    "name_origin": "Greek 'osme' (smell)"
  },
  "applications": [
    "Fountain pen tips (Os-Ir alloy)",
    "Fingerprint detection (OsO4)",
    "Surgical implants",
    "Electrical contacts (high-wear)"
  ],
  "hazards": {
    "ghs_pictograms": [
      "GHS06",
      "GHS05"
    ],
    "signal_word": null,
    "nfpa_704": null,
    "hazard_statements": [],
    "autoignition_temp_k": null,
    "flash_point_k": null,
    "explosive_limits_percent": null
  },
  "reactions": [
    {
      "id": "Os-notable-001",
      "name": "Osmium tetroxide formation",
      "equation": "Os(s) + 2 O2(g) -> OsO4(s)",
      "type": "oxidation",
      "category": "notable",
      "delta_h_kj": null,
      "conditions": "OsO4 is volatile, extremely toxic; powerful oxidizer used in organic chemistry for dihydroxylation",
      "description": "Osmium forms volatile, highly toxic OsO4. Used in organic synthesis (Sharpless dihydroxylation, Nobel 2001). Densest element.",
      "reversible": false
    }
  ]
}
