{
  "name": "Iridium",
  "symbol": "Ir",
  "atomic_number": 77,
  "atomic_mass_u": 192.22,
  "atomic_mass_uncertainty_u": 0.03,
  "classification": {
    "group": 9,
    "period": 6,
    "block": "d",
    "category": "transition metal",
    "series": "transition metal",
    "natural_occurrence": "primordial"
  },
  "atomic_structure": {
    "electron_configuration": "[Xe] 4f14 5d7 6s2",
    "electron_configuration_long": "1s2 2s2 2p6 3s2 3p6 3d10 4s2 4p6 4d10 5s2 5p6 4f14 5d7 6s2",
    "electron_shells": [
      2,
      8,
      18,
      32,
      15,
      2
    ],
    "valence_electrons": 9,
    "oxidation_states": [
      -3,
      -1,
      1,
      2,
      3,
      4,
      5,
      6,
      7,
      8,
      9
    ],
    "common_oxidation_states": [
      3,
      4
    ],
    "electronegativity_pauling": 2.2,
    "ionization_energies_kj_mol": [
      880.0
    ],
    "electron_affinity_kj_mol": 150.94,
    "atomic_radius_pm": 180,
    "covalent_radius_pm": 141,
    "van_der_waals_radius_pm": null
  },
  "physical_properties": {
    "phase_at_stp": "solid",
    "melting_point_k": 2719.0,
    "boiling_point_k": 4403.0,
    "density_kg_m3": 22560.0,
    "density_liquid_kg_m3": null,
    "triple_point_k": null,
    "triple_point_kpa": null,
    "critical_point_k": null,
    "critical_point_mpa": null,
    "heat_of_fusion_kj_mol": 41.12,
    "heat_of_vaporization_kj_mol": 564.0,
    "molar_heat_capacity_j_mol_k": 25.1,
    "color": "silvery-white",
    "crystal_structure": "face-centered cubic",
    "magnetic_ordering": "paramagnetic",
    "speed_of_sound_m_s": 4825,
    "thermal_conductivity_w_m_k": 147.0,
    "thermal_expansion_per_k": 6.4e-06,
    "mohs_hardness": 6.5,
    "bulk_modulus_gpa": 320,
    "shear_modulus_gpa": 210,
    "young_modulus_gpa": 528,
    "poisson_ratio": 0.26
  },
  "nuclear_properties": {
    "radioactive": false,
    "half_life": null,
    "decay_mode": null,
    "stable_isotopes": [
      191,
      193
    ],
    "isotopes": [
      {
        "mass_number": 192,
        "symbol": "192Ir",
        "name": null,
        "neutrons": 115,
        "abundance_percent": null,
        "mass_u": 192.22,
        "half_life": "stable",
        "decay_mode": null,
        "spin": null
      }
    ]
  },
  "abundance": {
    "universe_percent": null,
    "solar_percent": null,
    "earth_crust_ppm": 0.001,
    "ocean_ppm": null,
    "human_body_percent": null
  },
  "discovery": {
    "year": 1803,
    "discoverers": [
      "Smithson Tennant"
    ],
    "country": "England",
    "named_by": "Smithson Tennant",
    "name_origin": "Greek 'iris' (rainbow)"
  },
  "applications": [
    "Spark plugs",
    "Crucibles (high-temp chemistry)",
    "Iridium-platinum alloys",
    "Radioisotope power (192Ir)",
    "International Prototype Kilogram (Ir-Pt)"
  ],
  "hazards": {
    "ghs_pictograms": [],
    "signal_word": null,
    "nfpa_704": null,
    "hazard_statements": [],
    "autoignition_temp_k": null,
    "flash_point_k": null,
    "explosive_limits_percent": null
  },
  "reactions": []
}