{
  "name": "Gold",
  "symbol": "Au",
  "atomic_number": 79,
  "atomic_mass_u": 196.97,
  "atomic_mass_uncertainty_u": 0.01,
  "classification": {
    "group": 11,
    "period": 6,
    "block": "d",
    "category": "transition metal",
    "series": "transition metal",
    "natural_occurrence": "primordial"
  },
  "atomic_structure": {
    "electron_configuration": "[Xe] 4f14 5d10 6s1",
    "electron_configuration_long": "1s2 2s2 2p6 3s2 3p6 3d10 4s2 4p6 4d10 5s2 5p6 4f14 5d10 6s1",
    "electron_shells": [
      2,
      8,
      18,
      32,
      18,
      1
    ],
    "valence_electrons": 11,
    "oxidation_states": [
      -1,
      1,
      2,
      3,
      5
    ],
    "common_oxidation_states": [
      1,
      3
    ],
    "electronegativity_pauling": 2.54,
    "ionization_energies_kj_mol": [
      890.1
    ],
    "electron_affinity_kj_mol": 222.747,
    "atomic_radius_pm": 174,
    "covalent_radius_pm": 136,
    "van_der_waals_radius_pm": 166
  },
  "physical_properties": {
    "phase_at_stp": "solid",
    "melting_point_k": 1337.33,
    "boiling_point_k": 3129.0,
    "density_kg_m3": 19300.0,
    "density_liquid_kg_m3": 17310.0,
    "triple_point_k": null,
    "triple_point_kpa": null,
    "critical_point_k": null,
    "critical_point_mpa": null,
    "heat_of_fusion_kj_mol": 12.55,
    "heat_of_vaporization_kj_mol": 342.0,
    "molar_heat_capacity_j_mol_k": 25.418,
    "color": "golden yellow",
    "crystal_structure": "face-centered cubic",
    "magnetic_ordering": "diamagnetic",
    "speed_of_sound_m_s": 2030,
    "thermal_conductivity_w_m_k": 318.0,
    "thermal_expansion_per_k": 1.42e-05,
    "mohs_hardness": 2.5,
    "bulk_modulus_gpa": 180,
    "shear_modulus_gpa": 27,
    "young_modulus_gpa": 78,
    "poisson_ratio": 0.44
  },
  "nuclear_properties": {
    "radioactive": false,
    "half_life": null,
    "decay_mode": null,
    "stable_isotopes": [
      197
    ],
    "isotopes": [
      {
        "mass_number": 197,
        "symbol": "197Au",
        "name": null,
        "neutrons": 118,
        "abundance_percent": 100.0,
        "mass_u": 196.966569,
        "half_life": "stable",
        "decay_mode": null,
        "spin": "3/2+"
      }
    ]
  },
  "abundance": {
    "universe_percent": null,
    "solar_percent": null,
    "earth_crust_ppm": 0.004,
    "ocean_ppm": null,
    "human_body_percent": null
  },
  "discovery": {
    "year": null,
    "discoverers": [
      "Known since antiquity"
    ],
    "country": null,
    "named_by": null,
    "name_origin": "Anglo-Saxon 'gold' / Latin 'aurum'"
  },
  "applications": [
    "Jewelry and coinage",
    "Electronics (gold bonding wire, connectors)",
    "Dentistry",
    "Aerospace (satellite shielding)",
    "Monetary reserve",
    "Medical (gold nanoparticles, arthritis treatment)",
    "Infrared reflective coatings"
  ],
  "hazards": {
    "ghs_pictograms": [],
    "signal_word": null,
    "nfpa_704": {
      "health": 0,
      "flammability": 0,
      "reactivity": 0,
      "special": ""
    },
    "hazard_statements": [],
    "autoignition_temp_k": null,
    "flash_point_k": null,
    "explosive_limits_percent": null
  },
  "reactions": [
    {
      "id": "Au-notable-001",
      "name": "Gold dissolution in aqua regia",
      "equation": "Au(s) + 3 HCl(aq) + HNO3(aq) -> HAuCl4(aq) + NO(g) + 2 H2O(l)",
      "type": "dissolution",
      "category": "notable",
      "delta_h_kj": null,
      "conditions": "3:1 HCl:HNO3 mixture; chloride complexation drives dissolution",
      "description": "Aqua regia dissolves gold. Neither acid alone works. Cl- complexation (AuCl4-) shifts equilibrium. de Hevesy saved Nobel medals this way in WWII.",
      "reversible": false
    }
  ]
}
