{
  "name": "Mercury",
  "symbol": "Hg",
  "atomic_number": 80,
  "atomic_mass_u": 200.59,
  "atomic_mass_uncertainty_u": 0.02,
  "classification": {
    "group": 12,
    "period": 6,
    "block": "d",
    "category": "post-transition metal",
    "series": "poor metal",
    "natural_occurrence": "primordial"
  },
  "atomic_structure": {
    "electron_configuration": "[Xe] 4f14 5d10 6s2",
    "electron_configuration_long": "1s2 2s2 2p6 3s2 3p6 3d10 4s2 4p6 4d10 5s2 5p6 4f14 5d10 6s2",
    "electron_shells": [
      2,
      8,
      18,
      32,
      18,
      2
    ],
    "valence_electrons": 2,
    "oxidation_states": [
      1,
      2,
      4
    ],
    "common_oxidation_states": [
      1,
      2
    ],
    "electronegativity_pauling": 2.0,
    "ionization_energies_kj_mol": [
      1007.1
    ],
    "electron_affinity_kj_mol": -48.0,
    "atomic_radius_pm": 171,
    "covalent_radius_pm": 132,
    "van_der_waals_radius_pm": 155
  },
  "physical_properties": {
    "phase_at_stp": "liquid",
    "melting_point_k": 234.32,
    "boiling_point_k": 629.88,
    "density_kg_m3": 13534.0,
    "density_liquid_kg_m3": 13534.0,
    "triple_point_k": null,
    "triple_point_kpa": null,
    "critical_point_k": 1750,
    "critical_point_mpa": 167,
    "heat_of_fusion_kj_mol": 2.29,
    "heat_of_vaporization_kj_mol": 59.11,
    "molar_heat_capacity_j_mol_k": 27.983,
    "color": "silvery",
    "crystal_structure": "rhombohedral",
    "magnetic_ordering": "diamagnetic",
    "speed_of_sound_m_s": 1407,
    "thermal_conductivity_w_m_k": 8.3,
    "thermal_expansion_per_k": 6.04e-05,
    "mohs_hardness": null,
    "bulk_modulus_gpa": 25,
    "shear_modulus_gpa": null,
    "young_modulus_gpa": null,
    "poisson_ratio": null
  },
  "nuclear_properties": {
    "radioactive": false,
    "half_life": null,
    "decay_mode": null,
    "stable_isotopes": [
      196,
      198,
      199,
      200,
      201,
      202,
      204
    ],
    "isotopes": [
      {
        "mass_number": 201,
        "symbol": "201Hg",
        "name": null,
        "neutrons": 121,
        "abundance_percent": null,
        "mass_u": 200.59,
        "half_life": "stable",
        "decay_mode": null,
        "spin": null
      }
    ]
  },
  "abundance": {
    "universe_percent": null,
    "solar_percent": null,
    "earth_crust_ppm": 0.085,
    "ocean_ppm": null,
    "human_body_percent": null
  },
  "discovery": {
    "year": null,
    "discoverers": [
      "Known since antiquity"
    ],
    "country": null,
    "named_by": null,
    "name_origin": "Named after planet Mercury / Latin 'hydrargyrum'"
  },
  "applications": [
    "Thermometers (historical)",
    "Fluorescent lamps (mercury vapor)",
    "Dental amalgams (phasing out)",
    "Chlor-alkali process",
    "Batteries (mercury cell, phasing out)"
  ],
  "hazards": {
    "ghs_pictograms": [
      "GHS06",
      "GHS08",
      "GHS09"
    ],
    "signal_word": null,
    "nfpa_704": {
      "health": 3,
      "flammability": 0,
      "reactivity": 0,
      "special": ""
    },
    "hazard_statements": [],
    "autoignition_temp_k": null,
    "flash_point_k": null,
    "explosive_limits_percent": null
  },
  "reactions": [
    {
      "id": "Hg-environmental-001",
      "name": "Mercury methylation (bioaccumulation)",
      "equation": "Hg2+(aq) + CH3-(aq) -> CH3Hg+(aq)",
      "type": "methylation",
      "category": "environmental",
      "delta_h_kj": null,
      "conditions": "anaerobic sulfate-reducing bacteria; wetlands and sediments",
      "description": "Methylmercury bioaccumulates in food chains. Minamata disease. Extremely neurotoxic.",
      "reversible": false
    },
    {
      "id": "Hg-notable-001",
      "name": "Mercury(II) oxide decomposition (Priestley's experiment)",
      "equation": "2 HgO(s) -> 2 Hg(l) + O2(g)",
      "type": "decomposition",
      "category": "notable",
      "delta_h_kj": 181.6,
      "conditions": "773 K; Priestley (1774) and Scheele independently discovered O2 this way",
      "description": "How oxygen was discovered. Priestley heated HgO with a lens and collected 'dephlogisticated air'.",
      "reversible": false
    }
  ]
}
