{
  "name": "Polonium",
  "symbol": "Po",
  "atomic_number": 84,
  "atomic_mass_u": 209.0,
  "atomic_mass_uncertainty_u": null,
  "classification": {
    "group": 16,
    "period": 6,
    "block": "p",
    "category": "post-transition metal",
    "series": "poor metal",
    "natural_occurrence": "from decay"
  },
  "atomic_structure": {
    "electron_configuration": "[Xe] 4f14 5d10 6s2 6p4",
    "electron_configuration_long": "1s2 2s2 2p6 3s2 3p6 3d10 4s2 4p6 4d10 5s2 5p6 4f14 5d10 6s2 6p4",
    "electron_shells": [
      2,
      8,
      18,
      32,
      18,
      6
    ],
    "valence_electrons": 6,
    "oxidation_states": [
      -2,
      2,
      4,
      5,
      6
    ],
    "common_oxidation_states": [
      2,
      4
    ],
    "electronegativity_pauling": 2.0,
    "ionization_energies_kj_mol": [
      812.1
    ],
    "electron_affinity_kj_mol": 136.0,
    "atomic_radius_pm": 135,
    "covalent_radius_pm": 140,
    "van_der_waals_radius_pm": 197
  },
  "physical_properties": {
    "phase_at_stp": "solid",
    "melting_point_k": 527.0,
    "boiling_point_k": 1235.0,
    "density_kg_m3": 9196.0,
    "density_liquid_kg_m3": null,
    "triple_point_k": null,
    "triple_point_kpa": null,
    "critical_point_k": null,
    "critical_point_mpa": null,
    "heat_of_fusion_kj_mol": 13.0,
    "heat_of_vaporization_kj_mol": 102.91,
    "molar_heat_capacity_j_mol_k": 26.4,
    "color": "silvery",
    "crystal_structure": "cubic",
    "magnetic_ordering": null,
    "speed_of_sound_m_s": null,
    "thermal_conductivity_w_m_k": 20.0,
    "thermal_expansion_per_k": null,
    "mohs_hardness": null,
    "bulk_modulus_gpa": null,
    "shear_modulus_gpa": null,
    "young_modulus_gpa": null,
    "poisson_ratio": null
  },
  "nuclear_properties": {
    "radioactive": true,
    "half_life": "102 y",
    "decay_mode": "alpha",
    "stable_isotopes": [],
    "isotopes": [
      {
        "mass_number": 209,
        "symbol": "209Po",
        "name": null,
        "neutrons": 125,
        "abundance_percent": null,
        "mass_u": 209.0,
        "half_life": "102 y",
        "decay_mode": "alpha",
        "spin": null
      }
    ]
  },
  "abundance": {
    "universe_percent": null,
    "solar_percent": null,
    "earth_crust_ppm": 2e-10,
    "ocean_ppm": null,
    "human_body_percent": null
  },
  "discovery": {
    "year": 1898,
    "discoverers": [
      "Marie Curie",
      "Pierre Curie"
    ],
    "country": "France",
    "named_by": "Marie Curie",
    "name_origin": "Latin 'Polonia' (Poland)"
  },
  "applications": [
    "Nuclear batteries (RTG)",
    "Antistatic devices",
    "Neutron triggers"
  ],
  "hazards": {
    "ghs_pictograms": [
      "GHS06",
      "GHS07"
    ],
    "signal_word": null,
    "nfpa_704": null,
    "hazard_statements": [],
    "autoignition_temp_k": null,
    "flash_point_k": null,
    "explosive_limits_percent": null
  },
  "reactions": []
}