{
  "name": "Radon",
  "symbol": "Rn",
  "atomic_number": 86,
  "atomic_mass_u": 222.0,
  "atomic_mass_uncertainty_u": null,
  "classification": {
    "group": 18,
    "period": 6,
    "block": "p",
    "category": "noble gas",
    "series": "noble gas",
    "natural_occurrence": "from decay"
  },
  "atomic_structure": {
    "electron_configuration": "[Xe] 4f14 5d10 6s2 6p6",
    "electron_configuration_long": "1s2 2s2 2p6 3s2 3p6 3d10 4s2 4p6 4d10 5s2 5p6 4f14 5d10 6s2 6p6",
    "electron_shells": [
      2,
      8,
      18,
      32,
      18,
      8
    ],
    "valence_electrons": 8,
    "oxidation_states": [
      2,
      6
    ],
    "common_oxidation_states": [
      2
    ],
    "electronegativity_pauling": 2.2,
    "ionization_energies_kj_mol": [
      1037.0
    ],
    "electron_affinity_kj_mol": -68.0,
    "atomic_radius_pm": 120,
    "covalent_radius_pm": 150,
    "van_der_waals_radius_pm": 220
  },
  "physical_properties": {
    "phase_at_stp": "gas",
    "melting_point_k": 202.0,
    "boiling_point_k": 211.5,
    "density_kg_m3": 9.73,
    "density_liquid_kg_m3": null,
    "triple_point_k": null,
    "triple_point_kpa": null,
    "critical_point_k": null,
    "critical_point_mpa": null,
    "heat_of_fusion_kj_mol": 3.247,
    "heat_of_vaporization_kj_mol": 18.1,
    "molar_heat_capacity_j_mol_k": 20.786,
    "color": "colorless",
    "crystal_structure": "face-centered cubic",
    "magnetic_ordering": null,
    "speed_of_sound_m_s": null,
    "thermal_conductivity_w_m_k": 0.00361,
    "thermal_expansion_per_k": null,
    "mohs_hardness": null,
    "bulk_modulus_gpa": null,
    "shear_modulus_gpa": null,
    "young_modulus_gpa": null,
    "poisson_ratio": null
  },
  "nuclear_properties": {
    "radioactive": true,
    "half_life": "3.8235 d",
    "decay_mode": "alpha",
    "stable_isotopes": [],
    "isotopes": [
      {
        "mass_number": 222,
        "symbol": "222Rn",
        "name": null,
        "neutrons": 136,
        "abundance_percent": null,
        "mass_u": 222.0,
        "half_life": "3.8235 d",
        "decay_mode": "alpha",
        "spin": null
      }
    ]
  },
  "abundance": {
    "universe_percent": null,
    "solar_percent": null,
    "earth_crust_ppm": 4e-13,
    "ocean_ppm": null,
    "human_body_percent": null
  },
  "discovery": {
    "year": 1900,
    "discoverers": [
      "Friedrich Ernst Dorn"
    ],
    "country": "Germany",
    "named_by": "Karl Peter Thurneyssen",
    "name_origin": "From radium"
  },
  "applications": [
    "Earthquake prediction research",
    "Hydrological research",
    "Radon therapy (controversial)"
  ],
  "hazards": {
    "ghs_pictograms": [],
    "signal_word": null,
    "nfpa_704": null,
    "hazard_statements": [],
    "autoignition_temp_k": null,
    "flash_point_k": null,
    "explosive_limits_percent": null
  },
  "reactions": []
}