{
  "name": "Francium",
  "symbol": "Fr",
  "atomic_number": 87,
  "atomic_mass_u": 223.0,
  "atomic_mass_uncertainty_u": null,
  "classification": {
    "group": 1,
    "period": 7,
    "block": "s",
    "category": "alkali metal",
    "series": "alkali metal",
    "natural_occurrence": "from decay"
  },
  "atomic_structure": {
    "electron_configuration": "[Rn] 7s1",
    "electron_configuration_long": "1s2 2s2 2p6 3s2 3p6 3d10 4s2 4p6 4d10 5s2 5p6 4f14 5d10 6s2 6p6 7s1",
    "electron_shells": [
      2,
      8,
      18,
      32,
      18,
      8,
      1
    ],
    "valence_electrons": 1,
    "oxidation_states": [
      1
    ],
    "common_oxidation_states": [
      1
    ],
    "electronegativity_pauling": 0.79,
    "ionization_energies_kj_mol": [
      380.0
    ],
    "electron_affinity_kj_mol": 46.89,
    "atomic_radius_pm": null,
    "covalent_radius_pm": 260,
    "van_der_waals_radius_pm": 348
  },
  "physical_properties": {
    "phase_at_stp": "solid",
    "melting_point_k": 300.0,
    "boiling_point_k": 950.0,
    "density_kg_m3": 1870.0,
    "density_liquid_kg_m3": null,
    "triple_point_k": null,
    "triple_point_kpa": null,
    "critical_point_k": null,
    "critical_point_mpa": null,
    "heat_of_fusion_kj_mol": 2.0,
    "heat_of_vaporization_kj_mol": 64.0,
    "molar_heat_capacity_j_mol_k": null,
    "color": "metallic",
    "crystal_structure": "body-centered cubic",
    "magnetic_ordering": null,
    "speed_of_sound_m_s": null,
    "thermal_conductivity_w_m_k": 15.0,
    "thermal_expansion_per_k": null,
    "mohs_hardness": null,
    "bulk_modulus_gpa": null,
    "shear_modulus_gpa": null,
    "young_modulus_gpa": null,
    "poisson_ratio": null
  },
  "nuclear_properties": {
    "radioactive": true,
    "half_life": "22 min",
    "decay_mode": "beta-minus",
    "stable_isotopes": [],
    "isotopes": [
      {
        "mass_number": 223,
        "symbol": "223Fr",
        "name": null,
        "neutrons": 136,
        "abundance_percent": null,
        "mass_u": 223.0,
        "half_life": "22 min",
        "decay_mode": "beta-minus",
        "spin": null
      }
    ]
  },
  "abundance": {
    "universe_percent": null,
    "solar_percent": null,
    "earth_crust_ppm": null,
    "ocean_ppm": null,
    "human_body_percent": null
  },
  "discovery": {
    "year": 1939,
    "discoverers": [
      "Marguerite Perey"
    ],
    "country": "France",
    "named_by": "Marguerite Perey",
    "name_origin": "France"
  },
  "applications": [
    "Nuclear research",
    "Spectroscopy research"
  ],
  "hazards": {
    "ghs_pictograms": [],
    "signal_word": null,
    "nfpa_704": null,
    "hazard_statements": [],
    "autoignition_temp_k": null,
    "flash_point_k": null,
    "explosive_limits_percent": null
  },
  "reactions": []
}