{
  "name": "Radium",
  "symbol": "Ra",
  "atomic_number": 88,
  "atomic_mass_u": 226.0,
  "atomic_mass_uncertainty_u": null,
  "classification": {
    "group": 2,
    "period": 7,
    "block": "s",
    "category": "alkaline earth metal",
    "series": "alkaline earth metal",
    "natural_occurrence": "from decay"
  },
  "atomic_structure": {
    "electron_configuration": "[Rn] 7s2",
    "electron_configuration_long": "1s2 2s2 2p6 3s2 3p6 3d10 4s2 4p6 4d10 5s2 5p6 4f14 5d10 6s2 6p6 7s2",
    "electron_shells": [
      2,
      8,
      18,
      32,
      18,
      8,
      2
    ],
    "valence_electrons": 2,
    "oxidation_states": [
      2
    ],
    "common_oxidation_states": [
      2
    ],
    "electronegativity_pauling": 0.9,
    "ionization_energies_kj_mol": [
      509.3
    ],
    "electron_affinity_kj_mol": 9.6,
    "atomic_radius_pm": null,
    "covalent_radius_pm": 221,
    "van_der_waals_radius_pm": 283
  },
  "physical_properties": {
    "phase_at_stp": "solid",
    "melting_point_k": 973.0,
    "boiling_point_k": 2010.0,
    "density_kg_m3": 5500.0,
    "density_liquid_kg_m3": null,
    "triple_point_k": null,
    "triple_point_kpa": null,
    "critical_point_k": null,
    "critical_point_mpa": null,
    "heat_of_fusion_kj_mol": 8.5,
    "heat_of_vaporization_kj_mol": 113.0,
    "molar_heat_capacity_j_mol_k": null,
    "color": "silvery-white",
    "crystal_structure": "body-centered cubic",
    "magnetic_ordering": null,
    "speed_of_sound_m_s": null,
    "thermal_conductivity_w_m_k": 18.6,
    "thermal_expansion_per_k": null,
    "mohs_hardness": null,
    "bulk_modulus_gpa": null,
    "shear_modulus_gpa": null,
    "young_modulus_gpa": null,
    "poisson_ratio": null
  },
  "nuclear_properties": {
    "radioactive": true,
    "half_life": "1600 y",
    "decay_mode": "alpha",
    "stable_isotopes": [],
    "isotopes": [
      {
        "mass_number": 226,
        "symbol": "226Ra",
        "name": null,
        "neutrons": 138,
        "abundance_percent": null,
        "mass_u": 226.0,
        "half_life": "1600 y",
        "decay_mode": "alpha",
        "spin": null
      }
    ]
  },
  "abundance": {
    "universe_percent": null,
    "solar_percent": null,
    "earth_crust_ppm": 9e-07,
    "ocean_ppm": null,
    "human_body_percent": null
  },
  "discovery": {
    "year": 1898,
    "discoverers": [
      "Marie Curie",
      "Pierre Curie"
    ],
    "country": "France",
    "named_by": "Marie Curie",
    "name_origin": "Latin 'radius' (ray)"
  },
  "applications": [
    "Radiotherapy (historical)",
    "Luminous paint (historical, discontinued)",
    "Neutron sources (Ra-Be)"
  ],
  "hazards": {
    "ghs_pictograms": [],
    "signal_word": null,
    "nfpa_704": null,
    "hazard_statements": [],
    "autoignition_temp_k": null,
    "flash_point_k": null,
    "explosive_limits_percent": null
  },
  "reactions": []
}