{
  "name": "Actinium",
  "symbol": "Ac",
  "atomic_number": 89,
  "atomic_mass_u": 227.0,
  "atomic_mass_uncertainty_u": null,
  "classification": {
    "group": null,
    "period": 7,
    "block": "f",
    "category": "actinide",
    "series": "actinide",
    "natural_occurrence": "from decay"
  },
  "atomic_structure": {
    "electron_configuration": "[Rn] 6d1 7s2",
    "electron_configuration_long": "1s2 2s2 2p6 3s2 3p6 3d10 4s2 4p6 4d10 5s2 5p6 4f14 5d10 6s2 6p6 6d1 7s2",
    "electron_shells": [
      2,
      8,
      18,
      32,
      18,
      9,
      2
    ],
    "valence_electrons": 3,
    "oxidation_states": [
      2,
      3
    ],
    "common_oxidation_states": [
      3
    ],
    "electronegativity_pauling": 1.1,
    "ionization_energies_kj_mol": [
      499.0
    ],
    "electron_affinity_kj_mol": 33.77,
    "atomic_radius_pm": null,
    "covalent_radius_pm": 215,
    "van_der_waals_radius_pm": null
  },
  "physical_properties": {
    "phase_at_stp": "solid",
    "melting_point_k": 1323.0,
    "boiling_point_k": 3473.0,
    "density_kg_m3": 10070.0,
    "density_liquid_kg_m3": null,
    "triple_point_k": null,
    "triple_point_kpa": null,
    "critical_point_k": null,
    "critical_point_mpa": null,
    "heat_of_fusion_kj_mol": 14.0,
    "heat_of_vaporization_kj_mol": 400.0,
    "molar_heat_capacity_j_mol_k": 27.2,
    "color": "silvery-white",
    "crystal_structure": "face-centered cubic",
    "magnetic_ordering": null,
    "speed_of_sound_m_s": null,
    "thermal_conductivity_w_m_k": 12.0,
    "thermal_expansion_per_k": null,
    "mohs_hardness": null,
    "bulk_modulus_gpa": null,
    "shear_modulus_gpa": null,
    "young_modulus_gpa": null,
    "poisson_ratio": null
  },
  "nuclear_properties": {
    "radioactive": true,
    "half_life": "21.772 y",
    "decay_mode": "beta-minus",
    "stable_isotopes": [],
    "isotopes": [
      {
        "mass_number": 227,
        "symbol": "227Ac",
        "name": null,
        "neutrons": 138,
        "abundance_percent": null,
        "mass_u": 227.0,
        "half_life": "21.772 y",
        "decay_mode": "beta-minus",
        "spin": null
      }
    ]
  },
  "abundance": {
    "universe_percent": null,
    "solar_percent": null,
    "earth_crust_ppm": 5.5e-10,
    "ocean_ppm": null,
    "human_body_percent": null
  },
  "discovery": {
    "year": 1899,
    "discoverers": [
      "Andre-Louis Debierne"
    ],
    "country": "France",
    "named_by": "Andre-Louis Debierne",
    "name_origin": "Greek 'aktis' (ray)"
  },
  "applications": [
    "Neutron sources (Ac-Be)",
    "Radiotherapy research (225Ac targeted alpha therapy)"
  ],
  "hazards": {
    "ghs_pictograms": [],
    "signal_word": null,
    "nfpa_704": null,
    "hazard_statements": [],
    "autoignition_temp_k": null,
    "flash_point_k": null,
    "explosive_limits_percent": null
  },
  "reactions": []
}