{
  "name": "Thorium",
  "symbol": "Th",
  "atomic_number": 90,
  "atomic_mass_u": 232.04,
  "atomic_mass_uncertainty_u": 0.01,
  "classification": {
    "group": null,
    "period": 7,
    "block": "f",
    "category": "actinide",
    "series": "actinide",
    "natural_occurrence": "primordial"
  },
  "atomic_structure": {
    "electron_configuration": "[Rn] 6d2 7s2",
    "electron_configuration_long": "1s2 2s2 2p6 3s2 3p6 3d10 4s2 4p6 4d10 5s2 5p6 4f14 5d10 6s2 6p6 6d2 7s2",
    "electron_shells": [
      2,
      8,
      18,
      32,
      18,
      10,
      2
    ],
    "valence_electrons": 4,
    "oxidation_states": [
      1,
      2,
      3,
      4
    ],
    "common_oxidation_states": [
      4
    ],
    "electronegativity_pauling": 1.3,
    "ionization_energies_kj_mol": [
      587.0
    ],
    "electron_affinity_kj_mol": 112.72,
    "atomic_radius_pm": null,
    "covalent_radius_pm": 206,
    "van_der_waals_radius_pm": null
  },
  "physical_properties": {
    "phase_at_stp": "solid",
    "melting_point_k": 2023.0,
    "boiling_point_k": 5061.0,
    "density_kg_m3": 11720.0,
    "density_liquid_kg_m3": null,
    "triple_point_k": null,
    "triple_point_kpa": null,
    "critical_point_k": null,
    "critical_point_mpa": null,
    "heat_of_fusion_kj_mol": 13.81,
    "heat_of_vaporization_kj_mol": 514.0,
    "molar_heat_capacity_j_mol_k": 26.23,
    "color": "silvery",
    "crystal_structure": "face-centered cubic",
    "magnetic_ordering": "paramagnetic",
    "speed_of_sound_m_s": 2490,
    "thermal_conductivity_w_m_k": 54.0,
    "thermal_expansion_per_k": null,
    "mohs_hardness": 3.0,
    "bulk_modulus_gpa": 54,
    "shear_modulus_gpa": 31,
    "young_modulus_gpa": 79,
    "poisson_ratio": null
  },
  "nuclear_properties": {
    "radioactive": true,
    "half_life": "1.405e10 y",
    "decay_mode": "alpha",
    "stable_isotopes": [],
    "isotopes": [
      {
        "mass_number": 232,
        "symbol": "232Th",
        "name": null,
        "neutrons": 142,
        "abundance_percent": null,
        "mass_u": 232.04,
        "half_life": "1.405e10 y",
        "decay_mode": "alpha",
        "spin": null
      }
    ]
  },
  "abundance": {
    "universe_percent": null,
    "solar_percent": null,
    "earth_crust_ppm": 9.6,
    "ocean_ppm": null,
    "human_body_percent": null
  },
  "discovery": {
    "year": 1829,
    "discoverers": [
      "Jons Jacob Berzelius"
    ],
    "country": "Sweden",
    "named_by": "Jons Jacob Berzelius",
    "name_origin": "Norse god Thor"
  },
  "applications": [
    "Nuclear fuel (potential thorium reactor fuel)",
    "Gas mantles (ThO2)",
    "Aerospace alloys (Mg-Th)",
    "Welding electrodes (thoriated tungsten)",
    "Radiation shielding"
  ],
  "hazards": {
    "ghs_pictograms": [],
    "signal_word": null,
    "nfpa_704": null,
    "hazard_statements": [],
    "autoignition_temp_k": null,
    "flash_point_k": null,
    "explosive_limits_percent": null
  },
  "reactions": []
}