{
  "name": "Protactinium",
  "symbol": "Pa",
  "atomic_number": 91,
  "atomic_mass_u": 231.04,
  "atomic_mass_uncertainty_u": 0.01,
  "classification": {
    "group": null,
    "period": 7,
    "block": "f",
    "category": "actinide",
    "series": "actinide",
    "natural_occurrence": "from decay"
  },
  "atomic_structure": {
    "electron_configuration": "[Rn] 5f2 6d1 7s2",
    "electron_configuration_long": "1s2 2s2 2p6 3s2 3p6 3d10 4s2 4p6 4d10 5s2 5p6 4f14 5d10 6s2 6p6 5f2 6d1 7s2",
    "electron_shells": [
      2,
      8,
      18,
      32,
      20,
      9,
      2
    ],
    "valence_electrons": 5,
    "oxidation_states": [
      2,
      3,
      4,
      5
    ],
    "common_oxidation_states": [
      5
    ],
    "electronegativity_pauling": 1.5,
    "ionization_energies_kj_mol": [
      568.0
    ],
    "electron_affinity_kj_mol": 53.03,
    "atomic_radius_pm": null,
    "covalent_radius_pm": 200,
    "van_der_waals_radius_pm": null
  },
  "physical_properties": {
    "phase_at_stp": "solid",
    "melting_point_k": 1841.0,
    "boiling_point_k": 4300.0,
    "density_kg_m3": 15370.0,
    "density_liquid_kg_m3": null,
    "triple_point_k": null,
    "triple_point_kpa": null,
    "critical_point_k": null,
    "critical_point_mpa": null,
    "heat_of_fusion_kj_mol": 12.34,
    "heat_of_vaporization_kj_mol": 481.0,
    "molar_heat_capacity_j_mol_k": null,
    "color": "silvery-grey",
    "crystal_structure": "tetragonal",
    "magnetic_ordering": "paramagnetic",
    "speed_of_sound_m_s": null,
    "thermal_conductivity_w_m_k": 47.0,
    "thermal_expansion_per_k": null,
    "mohs_hardness": null,
    "bulk_modulus_gpa": null,
    "shear_modulus_gpa": null,
    "young_modulus_gpa": null,
    "poisson_ratio": null
  },
  "nuclear_properties": {
    "radioactive": true,
    "half_life": "3.276e4 y",
    "decay_mode": "alpha",
    "stable_isotopes": [],
    "isotopes": [
      {
        "mass_number": 231,
        "symbol": "231Pa",
        "name": null,
        "neutrons": 140,
        "abundance_percent": null,
        "mass_u": 231.04,
        "half_life": "3.276e4 y",
        "decay_mode": "alpha",
        "spin": null
      }
    ]
  },
  "abundance": {
    "universe_percent": null,
    "solar_percent": null,
    "earth_crust_ppm": 1.4e-06,
    "ocean_ppm": null,
    "human_body_percent": null
  },
  "discovery": {
    "year": 1913,
    "discoverers": [
      "Kasimir Fajans",
      "Oswald Helmuth Gohring"
    ],
    "country": "Germany",
    "named_by": "Kasimir Fajans",
    "name_origin": "Greek 'protos + aktis' (first ray)"
  },
  "applications": [
    "Nuclear research",
    "Tracer in geology"
  ],
  "hazards": {
    "ghs_pictograms": [],
    "signal_word": null,
    "nfpa_704": null,
    "hazard_statements": [],
    "autoignition_temp_k": null,
    "flash_point_k": null,
    "explosive_limits_percent": null
  },
  "reactions": []
}