{
  "name": "Curium",
  "symbol": "Cm",
  "atomic_number": 96,
  "atomic_mass_u": 247.0,
  "atomic_mass_uncertainty_u": null,
  "classification": {
    "group": null,
    "period": 7,
    "block": "f",
    "category": "actinide",
    "series": "actinide",
    "natural_occurrence": "synthetic"
  },
  "atomic_structure": {
    "electron_configuration": "[Rn] 5f7 6d1 7s2",
    "electron_configuration_long": "1s2 2s2 2p6 3s2 3p6 3d10 4s2 4p6 4d10 5s2 5p6 4f14 5d10 6s2 6p6 5f7 6d1 7s2",
    "electron_shells": [
      2,
      8,
      18,
      32,
      25,
      9,
      2
    ],
    "valence_electrons": 10,
    "oxidation_states": [
      3,
      4
    ],
    "common_oxidation_states": [
      3
    ],
    "electronegativity_pauling": 1.28,
    "ionization_energies_kj_mol": [
      581.0
    ],
    "electron_affinity_kj_mol": 27.17,
    "atomic_radius_pm": null,
    "covalent_radius_pm": 169,
    "van_der_waals_radius_pm": null
  },
  "physical_properties": {
    "phase_at_stp": "solid",
    "melting_point_k": 1613.0,
    "boiling_point_k": 3383.0,
    "density_kg_m3": 13510.0,
    "density_liquid_kg_m3": null,
    "triple_point_k": null,
    "triple_point_kpa": null,
    "critical_point_k": null,
    "critical_point_mpa": null,
    "heat_of_fusion_kj_mol": null,
    "heat_of_vaporization_kj_mol": null,
    "molar_heat_capacity_j_mol_k": null,
    "color": "silvery",
    "crystal_structure": "hexagonal close-packed",
    "magnetic_ordering": "antiferromagnetic",
    "speed_of_sound_m_s": null,
    "thermal_conductivity_w_m_k": 8.8,
    "thermal_expansion_per_k": null,
    "mohs_hardness": null,
    "bulk_modulus_gpa": null,
    "shear_modulus_gpa": null,
    "young_modulus_gpa": null,
    "poisson_ratio": null
  },
  "nuclear_properties": {
    "radioactive": true,
    "half_life": "1.56e7 y",
    "decay_mode": "alpha",
    "stable_isotopes": [],
    "isotopes": [
      {
        "mass_number": 247,
        "symbol": "247Cm",
        "name": null,
        "neutrons": 151,
        "abundance_percent": null,
        "mass_u": 247.0,
        "half_life": "1.56e7 y",
        "decay_mode": "alpha",
        "spin": null
      }
    ]
  },
  "abundance": {
    "universe_percent": null,
    "solar_percent": null,
    "earth_crust_ppm": null,
    "ocean_ppm": null,
    "human_body_percent": null
  },
  "discovery": {
    "year": 1944,
    "discoverers": [
      "Glenn T. Seaborg",
      "Ralph A. James",
      "Albert Ghiorso"
    ],
    "country": "United States",
    "named_by": "Glenn T. Seaborg",
    "name_origin": "Marie and Pierre Curie"
  },
  "applications": [
    "Nuclear research",
    "Alpha particle source"
  ],
  "hazards": {
    "ghs_pictograms": [],
    "signal_word": null,
    "nfpa_704": null,
    "hazard_statements": [],
    "autoignition_temp_k": null,
    "flash_point_k": null,
    "explosive_limits_percent": null
  },
  "reactions": []
}