{
  "name": "Berkelium",
  "symbol": "Bk",
  "atomic_number": 97,
  "atomic_mass_u": 247.0,
  "atomic_mass_uncertainty_u": null,
  "classification": {
    "group": null,
    "period": 7,
    "block": "f",
    "category": "actinide",
    "series": "actinide",
    "natural_occurrence": "synthetic"
  },
  "atomic_structure": {
    "electron_configuration": "[Rn] 5f9 7s2",
    "electron_configuration_long": "1s2 2s2 2p6 3s2 3p6 3d10 4s2 4p6 4d10 5s2 5p6 4f14 5d10 6s2 6p6 5f9 7s2",
    "electron_shells": [
      2,
      8,
      18,
      32,
      27,
      8,
      2
    ],
    "valence_electrons": 11,
    "oxidation_states": [
      2,
      3,
      4
    ],
    "common_oxidation_states": [
      3
    ],
    "electronegativity_pauling": 1.3,
    "ionization_energies_kj_mol": [
      601.0
    ],
    "electron_affinity_kj_mol": -165.24,
    "atomic_radius_pm": null,
    "covalent_radius_pm": null,
    "van_der_waals_radius_pm": null
  },
  "physical_properties": {
    "phase_at_stp": "solid",
    "melting_point_k": 1259.0,
    "boiling_point_k": 2900.0,
    "density_kg_m3": 14780.0,
    "density_liquid_kg_m3": null,
    "triple_point_k": null,
    "triple_point_kpa": null,
    "critical_point_k": null,
    "critical_point_mpa": null,
    "heat_of_fusion_kj_mol": null,
    "heat_of_vaporization_kj_mol": null,
    "molar_heat_capacity_j_mol_k": null,
    "color": "silvery",
    "crystal_structure": null,
    "magnetic_ordering": null,
    "speed_of_sound_m_s": null,
    "thermal_conductivity_w_m_k": 10.3,
    "thermal_expansion_per_k": null,
    "mohs_hardness": null,
    "bulk_modulus_gpa": null,
    "shear_modulus_gpa": null,
    "young_modulus_gpa": null,
    "poisson_ratio": null
  },
  "nuclear_properties": {
    "radioactive": true,
    "half_life": "1380 y",
    "decay_mode": "alpha/EC",
    "stable_isotopes": [],
    "isotopes": [
      {
        "mass_number": 247,
        "symbol": "247Bk",
        "name": null,
        "neutrons": 150,
        "abundance_percent": null,
        "mass_u": 247.0,
        "half_life": "1380 y",
        "decay_mode": "alpha/EC",
        "spin": null
      }
    ]
  },
  "abundance": {
    "universe_percent": null,
    "solar_percent": null,
    "earth_crust_ppm": null,
    "ocean_ppm": null,
    "human_body_percent": null
  },
  "discovery": {
    "year": 1949,
    "discoverers": [
      "Stanley G. Thompson",
      "Albert Ghiorso",
      "Glenn T. Seaborg"
    ],
    "country": "United States",
    "named_by": "Stanley G. Thompson",
    "name_origin": "Berkeley, California"
  },
  "applications": [
    "Nuclear research"
  ],
  "hazards": {
    "ghs_pictograms": [],
    "signal_word": null,
    "nfpa_704": null,
    "hazard_statements": [],
    "autoignition_temp_k": null,
    "flash_point_k": null,
    "explosive_limits_percent": null
  },
  "reactions": []
}